Program Version,EnergyPlus, Version 9.4.0-eabe692fc2, YMD=2020.12.03 19:40
1,5,Environment Title[],Latitude[deg],Longitude[deg],Time Zone[],Elevation[m]
2,8,Day of Simulation[],Month[],Day of Month[],DST Indicator[1=yes 0=no],Hour[],StartMinute[],EndMinute[],DayType
3,5,Cumulative Day of Simulation[],Month[],Day of Month[],DST Indicator[1=yes 0=no],DayType  ! When Daily Report Variables Requested
4,2,Cumulative Days of Simulation[],Month[]  ! When Monthly Report Variables Requested
5,1,Cumulative Days of Simulation[] ! When Run Period Report Variables Requested
6,1,Calendar Year of Simulation[] ! When Annual Report Variables Requested
7033,1,FLOOR 2 LAB 1,Zone Air Relative Humidity [%] !Hourly
7452,1,FLOOR 2 OPERATING,Zone Air Relative Humidity [%] !Hourly
8023,1,FLOOR 2 TRIAGE,Zone Air Relative Humidity [%] !Hourly
8214,1,FLOOR 3 ICU,Zone Air Relative Humidity [%] !Hourly
8785,1,FLOOR 3 TRIAGE,Zone Air Relative Humidity [%] !Hourly
12174,1,FLOOR 2 OPERATING VAV BOX COMPONENT,Zone Air Terminal Outdoor Air Volume Flow Rate [m3/s] !Hourly
12175,1,FLOOR 3 OPERATING VAV BOX COMPONENT,Zone Air Terminal Outdoor Air Volume Flow Rate [m3/s] !Hourly
12176,1,FLOOR 1 CAFE VAV BOX COMPONENT,Zone Air Terminal Outdoor Air Volume Flow Rate [m3/s] !Hourly
12177,1,FLOOR 1 CLEAN VAV BOX COMPONENT,Zone Air Terminal Outdoor Air Volume Flow Rate [m3/s] !Hourly
12178,1,FLOOR 1 CONFERENCE VAV BOX COMPONENT,Zone Air Terminal Outdoor Air Volume Flow Rate [m3/s] !Hourly
12179,1,FLOOR 1 DINING VAV BOX COMPONENT,Zone Air Terminal Outdoor Air Volume Flow Rate [m3/s] !Hourly
12180,1,FLOOR 1 ELEVATOR VAV BOX COMPONENT,Zone Air Terminal Outdoor Air Volume Flow Rate [m3/s] !Hourly
12181,1,FLOOR 1 EXAM VAV BOX COMPONENT,Zone Air Terminal Outdoor Air Volume Flow Rate [m3/s] !Hourly
12182,1,FLOOR 1 FOOD STORAGE VAV BOX COMPONENT,Zone Air Terminal Outdoor Air Volume Flow Rate [m3/s] !Hourly
12183,1,FLOOR 1 GAS STORAGE VAV BOX COMPONENT,Zone Air Terminal Outdoor Air Volume Flow Rate [m3/s] !Hourly
12184,1,FLOOR 1 IMAGING VAV BOX COMPONENT,Zone Air Terminal Outdoor Air Volume Flow Rate [m3/s] !Hourly
12185,1,FLOOR 1 KITCHEN VAV BOX COMPONENT,Zone Air Terminal Outdoor Air Volume Flow Rate [m3/s] !Hourly
12186,1,FLOOR 1 LAB 1 VAV BOX COMPONENT,Zone Air Terminal Outdoor Air Volume Flow Rate [m3/s] !Hourly
12187,1,FLOOR 1 LAB 2 VAV BOX COMPONENT,Zone Air Terminal Outdoor Air Volume Flow Rate [m3/s] !Hourly
12188,1,FLOOR 1 LAUNDRY VAV BOX COMPONENT,Zone Air Terminal Outdoor Air Volume Flow Rate [m3/s] !Hourly
12189,1,FLOOR 1 LOBBY VAV BOX COMPONENT,Zone Air Terminal Outdoor Air Volume Flow Rate [m3/s] !Hourly
12190,1,FLOOR 1 LOUNGE VAV BOX COMPONENT,Zone Air Terminal Outdoor Air Volume Flow Rate [m3/s] !Hourly
12191,1,FLOOR 1 MECH 1 VAV BOX COMPONENT,Zone Air Terminal Outdoor Air Volume Flow Rate [m3/s] !Hourly
12192,1,FLOOR 1 MECH 2 VAV BOX COMPONENT,Zone Air Terminal Outdoor Air Volume Flow Rate [m3/s] !Hourly
12193,1,FLOOR 1 OFFICE 1 VAV BOX COMPONENT,Zone Air Terminal Outdoor Air Volume Flow Rate [m3/s] !Hourly
12194,1,FLOOR 1 OFFICE 2 VAV BOX COMPONENT,Zone Air Terminal Outdoor Air Volume Flow Rate [m3/s] !Hourly
12195,1,FLOOR 1 OFFICE 3 VAV BOX COMPONENT,Zone Air Terminal Outdoor Air Volume Flow Rate [m3/s] !Hourly
12196,1,FLOOR 1 OFFICE 3 PERIMETER 1 VAV BOX COMPONENT,Zone Air Terminal Outdoor Air Volume Flow Rate [m3/s] !Hourly
12197,1,FLOOR 1 OFFICE 3 PERIMETER 2 VAV BOX COMPONENT,Zone Air Terminal Outdoor Air Volume Flow Rate [m3/s] !Hourly
12198,1,FLOOR 1 OFFICE 3 PERIMETER 3 VAV BOX COMPONENT,Zone Air Terminal Outdoor Air Volume Flow Rate [m3/s] !Hourly
12199,1,FLOOR 1 PATIENT VAV BOX COMPONENT,Zone Air Terminal Outdoor Air Volume Flow Rate [m3/s] !Hourly
12200,1,FLOOR 1 PHARMACY VAV BOX COMPONENT,Zone Air Terminal Outdoor Air Volume Flow Rate [m3/s] !Hourly
12201,1,FLOOR 1 PHYSICAL THERAPY VAV BOX COMPONENT,Zone Air Terminal Outdoor Air Volume Flow Rate [m3/s] !Hourly
12202,1,FLOOR 1 RECEIVING VAV BOX COMPONENT,Zone Air Terminal Outdoor Air Volume Flow Rate [m3/s] !Hourly
12203,1,FLOOR 1 RECEPTION VAV BOX COMPONENT,Zone Air Terminal Outdoor Air Volume Flow Rate [m3/s] !Hourly
12204,1,FLOOR 1 SOIL VAV BOX COMPONENT,Zone Air Terminal Outdoor Air Volume Flow Rate [m3/s] !Hourly
12205,1,FLOOR 1 STORAGE VAV BOX COMPONENT,Zone Air Terminal Outdoor Air Volume Flow Rate [m3/s] !Hourly
12206,1,FLOOR 1 WAITING VAV BOX COMPONENT,Zone Air Terminal Outdoor Air Volume Flow Rate [m3/s] !Hourly
12207,1,FLOOR 2 CHAPEL VAV BOX COMPONENT,Zone Air Terminal Outdoor Air Volume Flow Rate [m3/s] !Hourly
12208,1,FLOOR 2 CLEAN 1 VAV BOX COMPONENT,Zone Air Terminal Outdoor Air Volume Flow Rate [m3/s] !Hourly
12209,1,FLOOR 2 CLEAN 2 VAV BOX COMPONENT,Zone Air Terminal Outdoor Air Volume Flow Rate [m3/s] !Hourly
12210,1,FLOOR 2 CORRIDOR VAV BOX COMPONENT,Zone Air Terminal Outdoor Air Volume Flow Rate [m3/s] !Hourly
12211,1,FLOOR 2 ELEVATOR VAV BOX COMPONENT,Zone Air Terminal Outdoor Air Volume Flow Rate [m3/s] !Hourly
12212,1,FLOOR 2 EXAM 1 VAV BOX COMPONENT,Zone Air Terminal Outdoor Air Volume Flow Rate [m3/s] !Hourly
12213,1,FLOOR 2 EXAM 2 VAV BOX COMPONENT,Zone Air Terminal Outdoor Air Volume Flow Rate [m3/s] !Hourly
12214,1,FLOOR 2 EXAM 3 VAV BOX COMPONENT,Zone Air Terminal Outdoor Air Volume Flow Rate [m3/s] !Hourly
12215,1,FLOOR 2 EXAM 4 VAV BOX COMPONENT,Zone Air Terminal Outdoor Air Volume Flow Rate [m3/s] !Hourly
12216,1,FLOOR 2 GIFT SHOP VAV BOX COMPONENT,Zone Air Terminal Outdoor Air Volume Flow Rate [m3/s] !Hourly
12217,1,FLOOR 2 IMAGING 1 VAV BOX COMPONENT,Zone Air Terminal Outdoor Air Volume Flow Rate [m3/s] !Hourly
12218,1,FLOOR 2 IMAGING 2 VAV BOX COMPONENT,Zone Air Terminal Outdoor Air Volume Flow Rate [m3/s] !Hourly
12219,1,FLOOR 2 IMAGING 3 VAV BOX COMPONENT,Zone Air Terminal Outdoor Air Volume Flow Rate [m3/s] !Hourly
12220,1,FLOOR 2 LAB 1 VAV BOX COMPONENT,Zone Air Terminal Outdoor Air Volume Flow Rate [m3/s] !Hourly
12221,1,FLOOR 2 LAB 2 VAV BOX COMPONENT,Zone Air Terminal Outdoor Air Volume Flow Rate [m3/s] !Hourly
12222,1,FLOOR 2 LOCKERS VAV BOX COMPONENT,Zone Air Terminal Outdoor Air Volume Flow Rate [m3/s] !Hourly
12223,1,FLOOR 2 LOUNGE 1 VAV BOX COMPONENT,Zone Air Terminal Outdoor Air Volume Flow Rate [m3/s] !Hourly
12224,1,FLOOR 2 LOUNGE 2 VAV BOX COMPONENT,Zone Air Terminal Outdoor Air Volume Flow Rate [m3/s] !Hourly
12225,1,FLOOR 2 NURSE STATION 1 VAV BOX COMPONENT,Zone Air Terminal Outdoor Air Volume Flow Rate [m3/s] !Hourly
12226,1,FLOOR 2 NURSE STATION 2 VAV BOX COMPONENT,Zone Air Terminal Outdoor Air Volume Flow Rate [m3/s] !Hourly
12227,1,FLOOR 2 OFFICE 1 VAV BOX COMPONENT,Zone Air Terminal Outdoor Air Volume Flow Rate [m3/s] !Hourly
12228,1,FLOOR 2 OFFICE 2 VAV BOX COMPONENT,Zone Air Terminal Outdoor Air Volume Flow Rate [m3/s] !Hourly
12229,1,FLOOR 2 OFFICE 3 VAV BOX COMPONENT,Zone Air Terminal Outdoor Air Volume Flow Rate [m3/s] !Hourly
12230,1,FLOOR 2 OFFICE 4 VAV BOX COMPONENT,Zone Air Terminal Outdoor Air Volume Flow Rate [m3/s] !Hourly
12231,1,FLOOR 2 PACU VAV BOX COMPONENT,Zone Air Terminal Outdoor Air Volume Flow Rate [m3/s] !Hourly
12232,1,FLOOR 2 PATIENT 1 VAV BOX COMPONENT,Zone Air Terminal Outdoor Air Volume Flow Rate [m3/s] !Hourly
12233,1,FLOOR 2 PATIENT 2 VAV BOX COMPONENT,Zone Air Terminal Outdoor Air Volume Flow Rate [m3/s] !Hourly
12234,1,FLOOR 2 PROCEDURE 1 VAV BOX COMPONENT,Zone Air Terminal Outdoor Air Volume Flow Rate [m3/s] !Hourly
12235,1,FLOOR 2 PROCEDURE 2 VAV BOX COMPONENT,Zone Air Terminal Outdoor Air Volume Flow Rate [m3/s] !Hourly
12236,1,FLOOR 2 RECEPTION VAV BOX COMPONENT,Zone Air Terminal Outdoor Air Volume Flow Rate [m3/s] !Hourly
12237,1,FLOOR 2 RESTROOM 1 VAV BOX COMPONENT,Zone Air Terminal Outdoor Air Volume Flow Rate [m3/s] !Hourly
12238,1,FLOOR 2 RESTROOM 2 VAV BOX COMPONENT,Zone Air Terminal Outdoor Air Volume Flow Rate [m3/s] !Hourly
12239,1,FLOOR 2 SOIL 1 VAV BOX COMPONENT,Zone Air Terminal Outdoor Air Volume Flow Rate [m3/s] !Hourly
12240,1,FLOOR 2 SOIL 2 VAV BOX COMPONENT,Zone Air Terminal Outdoor Air Volume Flow Rate [m3/s] !Hourly
12241,1,FLOOR 2 STERILIZING VAV BOX COMPONENT,Zone Air Terminal Outdoor Air Volume Flow Rate [m3/s] !Hourly
12242,1,FLOOR 2 STORAGE 1 VAV BOX COMPONENT,Zone Air Terminal Outdoor Air Volume Flow Rate [m3/s] !Hourly
12243,1,FLOOR 2 STORAGE 2 VAV BOX COMPONENT,Zone Air Terminal Outdoor Air Volume Flow Rate [m3/s] !Hourly
12244,1,FLOOR 2 TRAUMA VAV BOX COMPONENT,Zone Air Terminal Outdoor Air Volume Flow Rate [m3/s] !Hourly
12245,1,FLOOR 2 TRIAGE VAV BOX COMPONENT,Zone Air Terminal Outdoor Air Volume Flow Rate [m3/s] !Hourly
12246,1,FLOOR 2 WAITING VAV BOX COMPONENT,Zone Air Terminal Outdoor Air Volume Flow Rate [m3/s] !Hourly
12247,1,FLOOR 3 CLEAN VAV BOX COMPONENT,Zone Air Terminal Outdoor Air Volume Flow Rate [m3/s] !Hourly
12248,1,FLOOR 3 ELEVATOR VAV BOX COMPONENT,Zone Air Terminal Outdoor Air Volume Flow Rate [m3/s] !Hourly
12249,1,FLOOR 3 EXAM VAV BOX COMPONENT,Zone Air Terminal Outdoor Air Volume Flow Rate [m3/s] !Hourly
12250,1,FLOOR 3 ICU VAV BOX COMPONENT,Zone Air Terminal Outdoor Air Volume Flow Rate [m3/s] !Hourly
12251,1,FLOOR 3 NURSE STATION 1 VAV BOX COMPONENT,Zone Air Terminal Outdoor Air Volume Flow Rate [m3/s] !Hourly
12252,1,FLOOR 3 NURSE STATION 2 VAV BOX COMPONENT,Zone Air Terminal Outdoor Air Volume Flow Rate [m3/s] !Hourly
12253,1,FLOOR 3 NURSERY VAV BOX COMPONENT,Zone Air Terminal Outdoor Air Volume Flow Rate [m3/s] !Hourly
12254,1,FLOOR 3 OFFICE VAV BOX COMPONENT,Zone Air Terminal Outdoor Air Volume Flow Rate [m3/s] !Hourly
12255,1,FLOOR 3 PATIENT 1 VAV BOX COMPONENT,Zone Air Terminal Outdoor Air Volume Flow Rate [m3/s] !Hourly
12256,1,FLOOR 3 PATIENT 2 VAV BOX COMPONENT,Zone Air Terminal Outdoor Air Volume Flow Rate [m3/s] !Hourly
12257,1,FLOOR 3 PATIENT 3 VAV BOX COMPONENT,Zone Air Terminal Outdoor Air Volume Flow Rate [m3/s] !Hourly
12258,1,FLOOR 3 PATIENT 4 VAV BOX COMPONENT,Zone Air Terminal Outdoor Air Volume Flow Rate [m3/s] !Hourly
12259,1,FLOOR 3 PATIENT CORRIDOR 1 VAV BOX COMPONENT,Zone Air Terminal Outdoor Air Volume Flow Rate [m3/s] !Hourly
12260,1,FLOOR 3 PATIENT CORRIDOR 2 VAV BOX COMPONENT,Zone Air Terminal Outdoor Air Volume Flow Rate [m3/s] !Hourly
12261,1,FLOOR 3 PROCEDURE VAV BOX COMPONENT,Zone Air Terminal Outdoor Air Volume Flow Rate [m3/s] !Hourly
12262,1,FLOOR 3 SOIL VAV BOX COMPONENT,Zone Air Terminal Outdoor Air Volume Flow Rate [m3/s] !Hourly
12263,1,FLOOR 3 SUPPLY VAV BOX COMPONENT,Zone Air Terminal Outdoor Air Volume Flow Rate [m3/s] !Hourly
12264,1,FLOOR 3 TRIAGE VAV BOX COMPONENT,Zone Air Terminal Outdoor Air Volume Flow Rate [m3/s] !Hourly
12265,1,FLOOR 3 WAITING VAV BOX COMPONENT,Zone Air Terminal Outdoor Air Volume Flow Rate [m3/s] !Hourly
12266,1,FLOOR 4-6 CLEAN VAV BOX COMPONENT,Zone Air Terminal Outdoor Air Volume Flow Rate [m3/s] !Hourly
12267,1,FLOOR 4-6 ELEVATOR VAV BOX COMPONENT,Zone Air Terminal Outdoor Air Volume Flow Rate [m3/s] !Hourly
12268,1,FLOOR 4-6 NURSE STATION VAV BOX COMPONENT,Zone Air Terminal Outdoor Air Volume Flow Rate [m3/s] !Hourly
12269,1,FLOOR 4-6 OFFICE VAV BOX COMPONENT,Zone Air Terminal Outdoor Air Volume Flow Rate [m3/s] !Hourly
12270,1,FLOOR 4-6 PATIENT 1 VAV BOX COMPONENT,Zone Air Terminal Outdoor Air Volume Flow Rate [m3/s] !Hourly
12271,1,FLOOR 4-6 PATIENT 2 VAV BOX COMPONENT,Zone Air Terminal Outdoor Air Volume Flow Rate [m3/s] !Hourly
12272,1,FLOOR 4-6 PATIENT 3 VAV BOX COMPONENT,Zone Air Terminal Outdoor Air Volume Flow Rate [m3/s] !Hourly
12273,1,FLOOR 4-6 PATIENT 4 VAV BOX COMPONENT,Zone Air Terminal Outdoor Air Volume Flow Rate [m3/s] !Hourly
12274,1,FLOOR 4-6 PATIENT CORRIDOR 1 VAV BOX COMPONENT,Zone Air Terminal Outdoor Air Volume Flow Rate [m3/s] !Hourly
12275,1,FLOOR 4-6 PATIENT CORRIDOR 2 VAV BOX COMPONENT,Zone Air Terminal Outdoor Air Volume Flow Rate [m3/s] !Hourly
12276,1,FLOOR 4-6 SOIL VAV BOX COMPONENT,Zone Air Terminal Outdoor Air Volume Flow Rate [m3/s] !Hourly
12277,1,FLOOR 4-6 SUPPLY VAV BOX COMPONENT,Zone Air Terminal Outdoor Air Volume Flow Rate [m3/s] !Hourly
12278,1,FLOOR 7 CLEAN VAV BOX COMPONENT,Zone Air Terminal Outdoor Air Volume Flow Rate [m3/s] !Hourly
12279,1,FLOOR 7 ELEVATOR VAV BOX COMPONENT,Zone Air Terminal Outdoor Air Volume Flow Rate [m3/s] !Hourly
12280,1,FLOOR 7 NURSE STATION VAV BOX COMPONENT,Zone Air Terminal Outdoor Air Volume Flow Rate [m3/s] !Hourly
12281,1,FLOOR 7 OFFICE VAV BOX COMPONENT,Zone Air Terminal Outdoor Air Volume Flow Rate [m3/s] !Hourly
12282,1,FLOOR 7 PATIENT 1 VAV BOX COMPONENT,Zone Air Terminal Outdoor Air Volume Flow Rate [m3/s] !Hourly
12283,1,FLOOR 7 PATIENT 2 VAV BOX COMPONENT,Zone Air Terminal Outdoor Air Volume Flow Rate [m3/s] !Hourly
12284,1,FLOOR 7 PATIENT 3 VAV BOX COMPONENT,Zone Air Terminal Outdoor Air Volume Flow Rate [m3/s] !Hourly
12285,1,FLOOR 7 PATIENT 4 VAV BOX COMPONENT,Zone Air Terminal Outdoor Air Volume Flow Rate [m3/s] !Hourly
12286,1,FLOOR 7 PATIENT CORRIDOR 1 VAV BOX COMPONENT,Zone Air Terminal Outdoor Air Volume Flow Rate [m3/s] !Hourly
12287,1,FLOOR 7 PATIENT CORRIDOR 2 VAV BOX COMPONENT,Zone Air Terminal Outdoor Air Volume Flow Rate [m3/s] !Hourly
12288,1,FLOOR 7 SOIL VAV BOX COMPONENT,Zone Air Terminal Outdoor Air Volume Flow Rate [m3/s] !Hourly
12289,1,FLOOR 7 SUPPLY VAV BOX COMPONENT,Zone Air Terminal Outdoor Air Volume Flow Rate [m3/s] !Hourly
12290,1,MOB FLOOR 1 CORE VAV BOX COMPONENT,Zone Air Terminal Outdoor Air Volume Flow Rate [m3/s] !Hourly
12291,1,MOB FLOOR 1 PERIMETER 1 VAV BOX COMPONENT,Zone Air Terminal Outdoor Air Volume Flow Rate [m3/s] !Hourly
12292,1,MOB FLOOR 1 PERIMETER 2 VAV BOX COMPONENT,Zone Air Terminal Outdoor Air Volume Flow Rate [m3/s] !Hourly
12293,1,MOB FLOOR 1 PERIMETER 3 VAV BOX COMPONENT,Zone Air Terminal Outdoor Air Volume Flow Rate [m3/s] !Hourly
12294,1,MOB FLOOR 2-4 CORE VAV BOX COMPONENT,Zone Air Terminal Outdoor Air Volume Flow Rate [m3/s] !Hourly
12295,1,MOB FLOOR 2-4 PERIMETER 1 VAV BOX COMPONENT,Zone Air Terminal Outdoor Air Volume Flow Rate [m3/s] !Hourly
12296,1,MOB FLOOR 2-4 PERIMETER 2 VAV BOX COMPONENT,Zone Air Terminal Outdoor Air Volume Flow Rate [m3/s] !Hourly
12297,1,MOB FLOOR 2-4 PERIMETER 3 VAV BOX COMPONENT,Zone Air Terminal Outdoor Air Volume Flow Rate [m3/s] !Hourly
12298,1,MOB FLOOR 2-4 PERIMETER 4 VAV BOX COMPONENT,Zone Air Terminal Outdoor Air Volume Flow Rate [m3/s] !Hourly
12299,1,MOB FLOOR 5 CORE VAV BOX COMPONENT,Zone Air Terminal Outdoor Air Volume Flow Rate [m3/s] !Hourly
12300,1,MOB FLOOR 5 PERIMETER 1 VAV BOX COMPONENT,Zone Air Terminal Outdoor Air Volume Flow Rate [m3/s] !Hourly
12301,1,MOB FLOOR 5 PERIMETER 2 VAV BOX COMPONENT,Zone Air Terminal Outdoor Air Volume Flow Rate [m3/s] !Hourly
12302,1,MOB FLOOR 5 PERIMETER 3 VAV BOX COMPONENT,Zone Air Terminal Outdoor Air Volume Flow Rate [m3/s] !Hourly
12303,1,MOB FLOOR 5 PERIMETER 4 VAV BOX COMPONENT,Zone Air Terminal Outdoor Air Volume Flow Rate [m3/s] !Hourly
13436,1,FLOOR 1 CAFE HEAT PUMP INLET NODE,System Node Standard Density Volume Flow Rate [m3/s] !Hourly
13437,1,FLOOR 1 CLEAN HEAT PUMP INLET NODE,System Node Standard Density Volume Flow Rate [m3/s] !Hourly
13438,1,FLOOR 1 CONFERENCE HEAT PUMP INLET NODE,System Node Standard Density Volume Flow Rate [m3/s] !Hourly
13439,1,FLOOR 1 DINING HEAT PUMP INLET NODE,System Node Standard Density Volume Flow Rate [m3/s] !Hourly
13440,1,FLOOR 1 ELEVATOR HEAT PUMP INLET NODE,System Node Standard Density Volume Flow Rate [m3/s] !Hourly
13441,1,FLOOR 1 EXAM HEAT PUMP INLET NODE,System Node Standard Density Volume Flow Rate [m3/s] !Hourly
13442,1,FLOOR 1 FOOD STORAGE HEAT PUMP INLET NODE,System Node Standard Density Volume Flow Rate [m3/s] !Hourly
13443,1,FLOOR 1 GAS STORAGE HEAT PUMP INLET NODE,System Node Standard Density Volume Flow Rate [m3/s] !Hourly
13444,1,FLOOR 1 IMAGING HEAT PUMP INLET NODE,System Node Standard Density Volume Flow Rate [m3/s] !Hourly
13445,1,FLOOR 1 KITCHEN HEAT PUMP INLET NODE,System Node Standard Density Volume Flow Rate [m3/s] !Hourly
13446,1,FLOOR 1 LAB 1 HEAT PUMP INLET NODE,System Node Standard Density Volume Flow Rate [m3/s] !Hourly
13447,1,FLOOR 1 LAB 2 HEAT PUMP INLET NODE,System Node Standard Density Volume Flow Rate [m3/s] !Hourly
13448,1,FLOOR 1 LAUNDRY HEAT PUMP INLET NODE,System Node Standard Density Volume Flow Rate [m3/s] !Hourly
13449,1,FLOOR 1 LOBBY HEAT PUMP INLET NODE,System Node Standard Density Volume Flow Rate [m3/s] !Hourly
13450,1,FLOOR 1 LOUNGE HEAT PUMP INLET NODE,System Node Standard Density Volume Flow Rate [m3/s] !Hourly
13451,1,FLOOR 1 MECH 1 HEAT PUMP INLET NODE,System Node Standard Density Volume Flow Rate [m3/s] !Hourly
13452,1,FLOOR 1 MECH 2 HEAT PUMP INLET NODE,System Node Standard Density Volume Flow Rate [m3/s] !Hourly
13453,1,FLOOR 1 OFFICE 1 HEAT PUMP INLET NODE,System Node Standard Density Volume Flow Rate [m3/s] !Hourly
13454,1,FLOOR 1 OFFICE 2 HEAT PUMP INLET NODE,System Node Standard Density Volume Flow Rate [m3/s] !Hourly
13455,1,FLOOR 1 OFFICE 3 HEAT PUMP INLET NODE,System Node Standard Density Volume Flow Rate [m3/s] !Hourly
13456,1,FLOOR 1 OFFICE 3 PERIMETER 1 HEAT PUMP INLET NODE,System Node Standard Density Volume Flow Rate [m3/s] !Hourly
13457,1,FLOOR 1 OFFICE 3 PERIMETER 2 HEAT PUMP INLET NODE,System Node Standard Density Volume Flow Rate [m3/s] !Hourly
13458,1,FLOOR 1 OFFICE 3 PERIMETER 3 HEAT PUMP INLET NODE,System Node Standard Density Volume Flow Rate [m3/s] !Hourly
13459,1,FLOOR 1 PATIENT HEAT PUMP INLET NODE,System Node Standard Density Volume Flow Rate [m3/s] !Hourly
13460,1,FLOOR 1 PHARMACY HEAT PUMP INLET NODE,System Node Standard Density Volume Flow Rate [m3/s] !Hourly
13461,1,FLOOR 1 PHYSICAL THERAPY HEAT PUMP INLET NODE,System Node Standard Density Volume Flow Rate [m3/s] !Hourly
13462,1,FLOOR 1 RECEIVING HEAT PUMP INLET NODE,System Node Standard Density Volume Flow Rate [m3/s] !Hourly
13463,1,FLOOR 1 RECEPTION HEAT PUMP INLET NODE,System Node Standard Density Volume Flow Rate [m3/s] !Hourly
13464,1,FLOOR 1 SOIL HEAT PUMP INLET NODE,System Node Standard Density Volume Flow Rate [m3/s] !Hourly
13465,1,FLOOR 1 STORAGE HEAT PUMP INLET NODE,System Node Standard Density Volume Flow Rate [m3/s] !Hourly
13466,1,FLOOR 1 WAITING HEAT PUMP INLET NODE,System Node Standard Density Volume Flow Rate [m3/s] !Hourly
13467,1,FLOOR 2 CHAPEL HEAT PUMP INLET NODE,System Node Standard Density Volume Flow Rate [m3/s] !Hourly
13468,1,FLOOR 2 CLEAN 1 HEAT PUMP INLET NODE,System Node Standard Density Volume Flow Rate [m3/s] !Hourly
13469,1,FLOOR 2 CLEAN 2 HEAT PUMP INLET NODE,System Node Standard Density Volume Flow Rate [m3/s] !Hourly
13470,1,FLOOR 2 CORRIDOR HEAT PUMP INLET NODE,System Node Standard Density Volume Flow Rate [m3/s] !Hourly
13471,1,FLOOR 2 ELEVATOR HEAT PUMP INLET NODE,System Node Standard Density Volume Flow Rate [m3/s] !Hourly
13472,1,FLOOR 2 EXAM 1 HEAT PUMP INLET NODE,System Node Standard Density Volume Flow Rate [m3/s] !Hourly
13473,1,FLOOR 2 EXAM 2 HEAT PUMP INLET NODE,System Node Standard Density Volume Flow Rate [m3/s] !Hourly
13474,1,FLOOR 2 EXAM 3 HEAT PUMP INLET NODE,System Node Standard Density Volume Flow Rate [m3/s] !Hourly
13475,1,FLOOR 2 EXAM 4 HEAT PUMP INLET NODE,System Node Standard Density Volume Flow Rate [m3/s] !Hourly
13476,1,FLOOR 2 GIFT SHOP HEAT PUMP INLET NODE,System Node Standard Density Volume Flow Rate [m3/s] !Hourly
13477,1,FLOOR 2 IMAGING 1 HEAT PUMP INLET NODE,System Node Standard Density Volume Flow Rate [m3/s] !Hourly
13478,1,FLOOR 2 IMAGING 2 HEAT PUMP INLET NODE,System Node Standard Density Volume Flow Rate [m3/s] !Hourly
13479,1,FLOOR 2 IMAGING 3 HEAT PUMP INLET NODE,System Node Standard Density Volume Flow Rate [m3/s] !Hourly
13480,1,FLOOR 2 LAB 1 HEAT PUMP INLET NODE,System Node Standard Density Volume Flow Rate [m3/s] !Hourly
13481,1,FLOOR 2 LAB 2 HEAT PUMP INLET NODE,System Node Standard Density Volume Flow Rate [m3/s] !Hourly
13482,1,FLOOR 2 LOCKERS HEAT PUMP INLET NODE,System Node Standard Density Volume Flow Rate [m3/s] !Hourly
13483,1,FLOOR 2 LOUNGE 1 HEAT PUMP INLET NODE,System Node Standard Density Volume Flow Rate [m3/s] !Hourly
13484,1,FLOOR 2 LOUNGE 2 HEAT PUMP INLET NODE,System Node Standard Density Volume Flow Rate [m3/s] !Hourly
13485,1,FLOOR 2 NURSE STATION 1 HEAT PUMP INLET NODE,System Node Standard Density Volume Flow Rate [m3/s] !Hourly
13486,1,FLOOR 2 NURSE STATION 2 HEAT PUMP INLET NODE,System Node Standard Density Volume Flow Rate [m3/s] !Hourly
13487,1,FLOOR 2 OFFICE 1 HEAT PUMP INLET NODE,System Node Standard Density Volume Flow Rate [m3/s] !Hourly
13488,1,FLOOR 2 OFFICE 2 HEAT PUMP INLET NODE,System Node Standard Density Volume Flow Rate [m3/s] !Hourly
13489,1,FLOOR 2 OFFICE 3 HEAT PUMP INLET NODE,System Node Standard Density Volume Flow Rate [m3/s] !Hourly
13490,1,FLOOR 2 OFFICE 4 HEAT PUMP INLET NODE,System Node Standard Density Volume Flow Rate [m3/s] !Hourly
13491,1,FLOOR 2 OPERATING VAV BOX OUTLET NODE NAME,System Node Standard Density Volume Flow Rate [m3/s] !Hourly
13492,1,FLOOR 2 PACU HEAT PUMP INLET NODE,System Node Standard Density Volume Flow Rate [m3/s] !Hourly
13493,1,FLOOR 2 PATIENT 1 HEAT PUMP INLET NODE,System Node Standard Density Volume Flow Rate [m3/s] !Hourly
13494,1,FLOOR 2 PATIENT 2 HEAT PUMP INLET NODE,System Node Standard Density Volume Flow Rate [m3/s] !Hourly
13495,1,FLOOR 2 PROCEDURE 1 HEAT PUMP INLET NODE,System Node Standard Density Volume Flow Rate [m3/s] !Hourly
13496,1,FLOOR 2 PROCEDURE 2 HEAT PUMP INLET NODE,System Node Standard Density Volume Flow Rate [m3/s] !Hourly
13497,1,FLOOR 2 RECEPTION HEAT PUMP INLET NODE,System Node Standard Density Volume Flow Rate [m3/s] !Hourly
13498,1,FLOOR 2 RESTROOM 1 HEAT PUMP INLET NODE,System Node Standard Density Volume Flow Rate [m3/s] !Hourly
13499,1,FLOOR 2 RESTROOM 2 HEAT PUMP INLET NODE,System Node Standard Density Volume Flow Rate [m3/s] !Hourly
13500,1,FLOOR 2 SOIL 1 HEAT PUMP INLET NODE,System Node Standard Density Volume Flow Rate [m3/s] !Hourly
13501,1,FLOOR 2 SOIL 2 HEAT PUMP INLET NODE,System Node Standard Density Volume Flow Rate [m3/s] !Hourly
13502,1,FLOOR 2 STERILIZING HEAT PUMP INLET NODE,System Node Standard Density Volume Flow Rate [m3/s] !Hourly
13503,1,FLOOR 2 STORAGE 1 HEAT PUMP INLET NODE,System Node Standard Density Volume Flow Rate [m3/s] !Hourly
13504,1,FLOOR 2 STORAGE 2 HEAT PUMP INLET NODE,System Node Standard Density Volume Flow Rate [m3/s] !Hourly
13505,1,FLOOR 2 TRAUMA HEAT PUMP INLET NODE,System Node Standard Density Volume Flow Rate [m3/s] !Hourly
13506,1,FLOOR 2 TRIAGE HEAT PUMP INLET NODE,System Node Standard Density Volume Flow Rate [m3/s] !Hourly
13507,1,FLOOR 2 WAITING HEAT PUMP INLET NODE,System Node Standard Density Volume Flow Rate [m3/s] !Hourly
13508,1,FLOOR 3 CLEAN HEAT PUMP INLET NODE,System Node Standard Density Volume Flow Rate [m3/s] !Hourly
13509,1,FLOOR 3 ELEVATOR HEAT PUMP INLET NODE,System Node Standard Density Volume Flow Rate [m3/s] !Hourly
13510,1,FLOOR 3 EXAM HEAT PUMP INLET NODE,System Node Standard Density Volume Flow Rate [m3/s] !Hourly
13511,1,FLOOR 3 ICU HEAT PUMP INLET NODE,System Node Standard Density Volume Flow Rate [m3/s] !Hourly
13512,1,FLOOR 3 NURSE STATION 1 HEAT PUMP INLET NODE,System Node Standard Density Volume Flow Rate [m3/s] !Hourly
13513,1,FLOOR 3 NURSE STATION 2 HEAT PUMP INLET NODE,System Node Standard Density Volume Flow Rate [m3/s] !Hourly
13514,1,FLOOR 3 NURSERY HEAT PUMP INLET NODE,System Node Standard Density Volume Flow Rate [m3/s] !Hourly
13515,1,FLOOR 3 OFFICE HEAT PUMP INLET NODE,System Node Standard Density Volume Flow Rate [m3/s] !Hourly
13516,1,FLOOR 3 OPERATING VAV BOX OUTLET NODE NAME,System Node Standard Density Volume Flow Rate [m3/s] !Hourly
13517,1,FLOOR 3 PATIENT 1 HEAT PUMP INLET NODE,System Node Standard Density Volume Flow Rate [m3/s] !Hourly
13518,1,FLOOR 3 PATIENT 2 HEAT PUMP INLET NODE,System Node Standard Density Volume Flow Rate [m3/s] !Hourly
13519,1,FLOOR 3 PATIENT 3 HEAT PUMP INLET NODE,System Node Standard Density Volume Flow Rate [m3/s] !Hourly
13520,1,FLOOR 3 PATIENT 4 HEAT PUMP INLET NODE,System Node Standard Density Volume Flow Rate [m3/s] !Hourly
13521,1,FLOOR 3 PATIENT CORRIDOR 1 HEAT PUMP INLET NODE,System Node Standard Density Volume Flow Rate [m3/s] !Hourly
13522,1,FLOOR 3 PATIENT CORRIDOR 2 HEAT PUMP INLET NODE,System Node Standard Density Volume Flow Rate [m3/s] !Hourly
13523,1,FLOOR 3 PROCEDURE HEAT PUMP INLET NODE,System Node Standard Density Volume Flow Rate [m3/s] !Hourly
13524,1,FLOOR 3 SOIL HEAT PUMP INLET NODE,System Node Standard Density Volume Flow Rate [m3/s] !Hourly
13525,1,FLOOR 3 SUPPLY HEAT PUMP INLET NODE,System Node Standard Density Volume Flow Rate [m3/s] !Hourly
13526,1,FLOOR 3 TRIAGE HEAT PUMP INLET NODE,System Node Standard Density Volume Flow Rate [m3/s] !Hourly
13527,1,FLOOR 3 WAITING HEAT PUMP INLET NODE,System Node Standard Density Volume Flow Rate [m3/s] !Hourly
