Program Version,EnergyPlus, Version 9.4.0-eabe692fc2, YMD=2020.12.04 09:14
1,5,Environment Title[],Latitude[deg],Longitude[deg],Time Zone[],Elevation[m]
2,8,Day of Simulation[],Month[],Day of Month[],DST Indicator[1=yes 0=no],Hour[],StartMinute[],EndMinute[],DayType
3,5,Cumulative Day of Simulation[],Month[],Day of Month[],DST Indicator[1=yes 0=no],DayType  ! When Daily Report Variables Requested
4,2,Cumulative Days of Simulation[],Month[]  ! When Monthly Report Variables Requested
5,1,Cumulative Days of Simulation[] ! When Run Period Report Variables Requested
6,1,Calendar Year of Simulation[] ! When Annual Report Variables Requested
379,1,PLENUM-1,Zone Air Temperature [C] !Hourly
418,1,SPACE1-1,Zone Air Temperature [C] !Hourly
457,1,SPACE2-1,Zone Air System Sensible Heating Rate [W] !Hourly
458,1,SPACE2-1,Zone Air System Sensible Cooling Rate [W] !Hourly
459,1,SPACE2-1,Zone Air Temperature [C] !Hourly
498,1,SPACE3-1,Zone Air Temperature [C] !Hourly
537,1,SPACE4-1,Zone Air Temperature [C] !Hourly
576,1,SPACE5-1,Zone Air Temperature [C] !Hourly
788,1,SPACE2-1 ZONE COIL,Heating Coil Heating Rate [W] !Hourly
847,1,MAIN COOLING COIL 1,Cooling Coil Total Cooling Rate [W] !Hourly
890,1,SPACE1-1 VAV REHEAT,Zone Air Terminal Primary Damper Position [] !Hourly
891,1,SPACE3-1 VAV REHEAT,Zone Air Terminal Primary Damper Position [] !Hourly
892,1,SPACE2-1 VAV REHEAT,Zone Air Terminal Primary Damper Position [] !Hourly
893,1,SPACE4-1 VAV REHEAT,Zone Air Terminal Primary Damper Position [] !Hourly
1094,1,OUTSIDE AIR INLET NODE 1,System Node Temperature [C] !Hourly
1095,1,OUTSIDE AIR INLET NODE 1,System Node Mass Flow Rate [kg/s] !Hourly
1096,1,SPACE1-1 ATU SEC NODE,System Node Mass Flow Rate [kg/s] !Hourly
1097,1,SPACE4-1 ATU SEC NODE,System Node Temperature [C] !Hourly
1098,1,SPACE4-1 ATU SEC NODE,System Node Mass Flow Rate [kg/s] !Hourly
1099,1,MIXED AIR NODE 1,System Node Temperature [C] !Hourly
1100,1,MIXED AIR NODE 1,System Node Mass Flow Rate [kg/s] !Hourly
1101,1,VAV SYS 1 OUTLET NODE,System Node Temperature [C] !Hourly
1102,1,VAV SYS 1 OUTLET NODE,System Node Mass Flow Rate [kg/s] !Hourly
1103,1,SPACE1-1 OUT NODE,System Node Mass Flow Rate [kg/s] !Hourly
1104,1,SPACE2-1 OUT NODE,System Node Mass Flow Rate [kg/s] !Hourly
1105,1,SPACE3-1 OUT NODE,System Node Mass Flow Rate [kg/s] !Hourly
1106,1,SPACE4-1 IN NODE,System Node Temperature [C] !Hourly
1107,1,SPACE4-1 IN NODE,System Node Mass Flow Rate [kg/s] !Hourly
1108,1,SPACE4-1 OUT NODE,System Node Mass Flow Rate [kg/s] !Hourly
1109,1,SPACE5-1 OUT NODE,System Node Mass Flow Rate [kg/s] !Hourly
1110,1,PLENUM-1 OUT NODE,System Node Temperature [C] !Hourly
1111,1,PLENUM-1 OUT NODE,System Node Mass Flow Rate [kg/s] !Hourly
1112,1,SPACE4-1 ATU IN NODE,System Node Temperature [C] !Hourly
1113,1,SPACE4-1 ATU IN NODE,System Node Mass Flow Rate [kg/s] !Hourly
1114,1,SPACE4-1 ZONE COIL AIR IN NODE,System Node Temperature [C] !Hourly
1115,1,PLENUM-1 NODE,System Node Mass Flow Rate [kg/s] !Hourly
End of Data Dictionary
1,CHICAGO ANN HTG 99% CONDNS DB,  39.74,-105.18,  -7.00,1829.00
2,1, 1,21, 0, 1, 0.00,60.00,WinterDesignDay
379,17.844298198327839
418,21.099774416509957
457,929.0389875479605
458,0.0
459,21.09986482257244
498,21.099900207505028
537,21.099712935241575
576,21.099884755780594
788,1032.5389129973719
847,0.0
890,0.31913027177415967
891,0.33751846860977299
892,0.17651909171211484
893,0.1529125303438993
1094,-17.3
1095,0.0094747843321255
1096,0.21380837003200538
1097,17.84429819832784
1098,0.29789480069525739
1099,17.307329918056195
1100,0.6201197690198855
1101,18.259872605984165
1102,0.6201197690198855
1103,0.3140224350833328
1104,0.04555184775060339
1105,0.1002140650513274
1106,23.781516733346785
1107,0.34344664844586078
1108,0.34344664844586078
1109,0.328587943416024
1110,17.84429819832784
1111,0.6201197690198854
1112,18.259872605984165
1113,0.04555184775060337
1114,17.988689623633524
1115,0.6201197690198854
2,1, 1,21, 0, 2, 0.00,60.00,WinterDesignDay
379,17.84429819832783
418,21.099774416509946
457,929.0389875479593
458,0.0
459,21.099864822572426
498,21.09990020750502
537,21.099712935241607
576,21.099884755780587
788,1032.5389129973724
847,0.0
890,0.31913027177415967
891,0.33751846860977299
892,0.17651909171211484
893,0.1529125303438993
1094,-17.3
1095,0.0094747843321255
1096,0.21380837003200538
1097,17.84429819832783
1098,0.29789480069525739
1099,17.30732991805618
1100,0.6201197690198855
1101,18.25987260598415
1102,0.6201197690198855
1103,0.3140224350833328
1104,0.04555184775060339
1105,0.1002140650513274
1106,23.781516733346775
1107,0.34344664844586078
1108,0.34344664844586078
1109,0.328587943416024
1110,17.84429819832783
1111,0.6201197690198854
1112,18.25987260598415
1113,0.04555184775060337
1114,17.988689623633513
1115,0.6201197690198854
2,1, 1,21, 0, 3, 0.00,60.00,WinterDesignDay
379,17.844298198327818
418,21.099774416509928
457,929.0389875479566
458,0.0
459,21.099864822572429
498,21.09990020750501
537,21.099712935241564
576,21.099884755780587
788,1032.5389129973724
847,0.0
890,0.31913027177415967
891,0.33751846860977299
892,0.17651909171211484
893,0.1529125303438993
1094,-17.3
1095,0.0094747843321255
1096,0.21380837003200538
1097,17.84429819832782
1098,0.29789480069525739
1099,17.30732991805617
1100,0.6201197690198855
1101,18.259872605984144
1102,0.6201197690198855
1103,0.3140224350833328
1104,0.04555184775060339
1105,0.1002140650513274
1106,23.781516733346768
1107,0.34344664844586078
1108,0.34344664844586078
1109,0.328587943416024
1110,17.84429819832782
1111,0.6201197690198854
1112,18.259872605984144
1113,0.04555184775060337
1114,17.988689623633506
1115,0.6201197690198854
2,1, 1,21, 0, 4, 0.00,60.00,WinterDesignDay
379,17.844298198327807
418,21.099774416509907
457,929.0389875479607
458,0.0
459,21.099864822572426
498,21.09990020750501
537,21.099712935241596
576,21.09988475578058
788,1032.538912997372
847,0.0
890,0.31913027177415967
891,0.33751846860977299
892,0.17651909171211484
893,0.1529125303438993
1094,-17.3
1095,0.0094747843321255
1096,0.21380837003200538
1097,17.844298198327807
1098,0.29789480069525739
1099,17.307329918056156
1100,0.6201197690198855
1101,18.259872605984126
1102,0.6201197690198855
1103,0.3140224350833328
1104,0.04555184775060339
1105,0.1002140650513274
1106,23.781516733346753
1107,0.34344664844586078
1108,0.34344664844586078
1109,0.328587943416024
1110,17.844298198327807
1111,0.6201197690198854
1112,18.259872605984126
1113,0.04555184775060337
1114,17.98868962363349
1115,0.6201197690198854
2,1, 1,21, 0, 5, 0.00,60.00,WinterDesignDay
379,17.844298198327797
418,21.099774416509978
457,929.0389875479568
458,0.0
459,21.09986482257244
498,21.099900207505006
537,21.099712935241564
576,21.09988475578057
788,1032.538912997372
847,0.0
890,0.31913027177415967
891,0.33751846860977299
892,0.17651909171211484
893,0.1529125303438993
1094,-17.3
1095,0.0094747843321255
1096,0.21380837003200538
1097,17.84429819832779
1098,0.29789480069525739
1099,17.30732991805614
1100,0.6201197690198855
1101,18.259872605984115
1102,0.6201197690198855
1103,0.3140224350833328
1104,0.04555184775060339
1105,0.1002140650513274
1106,23.78151673334674
1107,0.34344664844586078
1108,0.34344664844586078
1109,0.328587943416024
1110,17.84429819832779
1111,0.6201197690198854
1112,18.259872605984115
1113,0.04555184775060337
1114,17.988689623633478
1115,0.6201197690198854
2,1, 1,21, 0, 6, 0.00,60.00,WinterDesignDay
379,17.844298198327786
418,21.099774416509914
457,929.0389875479564
458,0.0
459,21.09986482257244
498,21.099900207505
537,21.099712935241536
576,21.099884755780566
788,1032.5389129973719
847,0.0
890,0.31913027177415967
891,0.33751846860977299
892,0.17651909171211484
893,0.1529125303438993
1094,-17.3
1095,0.0094747843321255
1096,0.21380837003200538
1097,17.84429819832779
1098,0.29789480069525739
1099,17.307329918056138
1100,0.6201197690198855
1101,18.25987260598411
1102,0.6201197690198855
1103,0.3140224350833328
1104,0.04555184775060339
1105,0.1002140650513274
1106,23.781516733346736
1107,0.34344664844586078
1108,0.34344664844586078
1109,0.328587943416024
1110,17.84429819832779
1111,0.6201197690198854
1112,18.25987260598411
1113,0.04555184775060337
1114,17.98868962363347
1115,0.6201197690198854
2,1, 1,21, 0, 7, 0.00,60.00,WinterDesignDay
379,17.844298198327765
418,21.09977441650988
457,929.0389875479552
458,0.0
459,21.099864822572444
498,21.099900207505
537,21.099712935241564
576,21.099884755780559
788,1032.5389129973719
847,0.0
890,0.31913027177415967
891,0.33751846860977299
892,0.17651909171211484
893,0.1529125303438993
1094,-17.3
1095,0.0094747843321255
1096,0.21380837003200538
1097,17.844298198327768
1098,0.29789480069525739
1099,17.307329918056117
1100,0.6201197690198855
1101,18.259872605984087
1102,0.6201197690198855
1103,0.3140224350833328
1104,0.04555184775060339
1105,0.1002140650513274
1106,23.781516733346714
1107,0.34344664844586078
1108,0.34344664844586078
1109,0.328587943416024
1110,17.844298198327768
1111,0.6201197690198854
1112,18.259872605984087
1113,0.04555184775060337
1114,17.988689623633449
1115,0.6201197690198854
2,1, 1,21, 0, 8, 0.00,60.00,WinterDesignDay
379,17.844298198327765
418,21.0997744165099
457,929.0389875479582
458,0.0
459,21.099864822572429
498,21.099900207505
537,21.099712935241546
576,21.099884755780559
788,1032.538912997372
847,0.0
890,0.31913027177415967
891,0.33751846860977299
892,0.17651909171211484
893,0.1529125303438993
1094,-17.3
1095,0.0094747843321255
1096,0.21380837003200538
1097,17.844298198327768
1098,0.29789480069525739
1099,17.307329918056113
1100,0.6201197690198855
1101,18.259872605984087
1102,0.6201197690198855
1103,0.3140224350833328
1104,0.04555184775060339
1105,0.1002140650513274
1106,23.781516733346714
1107,0.34344664844586078
1108,0.34344664844586078
1109,0.328587943416024
1110,17.844298198327768
1111,0.6201197690198854
1112,18.259872605984087
1113,0.04555184775060337
1114,17.988689623633449
1115,0.6201197690198854
2,1, 1,21, 0, 9, 0.00,60.00,WinterDesignDay
379,17.844298198327765
418,21.09977441650989
457,929.038987547955
458,0.0
459,21.099864822572419
498,21.099900207504999
537,21.09971293524154
576,21.099884755780559
788,1032.5389129973729
847,0.0
890,0.31913027177415967
891,0.33751846860977299
892,0.17651909171211484
893,0.1529125303438993
1094,-17.3
1095,0.0094747843321255
1096,0.21380837003200538
1097,17.844298198327765
1098,0.29789480069525739
1099,17.307329918056113
1100,0.6201197690198855
1101,18.259872605984083
1102,0.6201197690198855
1103,0.3140224350833328
1104,0.04555184775060339
1105,0.1002140650513274
1106,23.78151673334671
1107,0.34344664844586078
1108,0.34344664844586078
1109,0.328587943416024
1110,17.844298198327765
1111,0.6201197690198854
1112,18.259872605984083
1113,0.04555184775060337
1114,17.988689623633446
1115,0.6201197690198854
2,1, 1,21, 0,10, 0.00,60.00,WinterDesignDay
379,17.844298198327765
418,21.0997744165099
457,929.0389875479605
458,0.0
459,21.09986482257241
498,21.099900207504999
537,21.09971293524155
576,21.099884755780559
788,1032.5389129973726
847,0.0
890,0.31913027177415967
891,0.33751846860977299
892,0.17651909171211484
893,0.1529125303438993
1094,-17.3
1095,0.0094747843321255
1096,0.21380837003200538
1097,17.844298198327765
1098,0.29789480069525739
1099,17.307329918056113
1100,0.6201197690198855
1101,18.259872605984087
1102,0.6201197690198855
1103,0.3140224350833328
1104,0.04555184775060339
1105,0.1002140650513274
1106,23.781516733346714
1107,0.34344664844586078
1108,0.34344664844586078
1109,0.328587943416024
1110,17.844298198327765
1111,0.6201197690198854
1112,18.259872605984087
1113,0.04555184775060337
1114,17.988689623633449
1115,0.6201197690198854
2,1, 1,21, 0,11, 0.00,60.00,WinterDesignDay
379,17.84429819832777
418,21.099774416509964
457,929.0389875479559
458,0.0
459,21.099864822572429
498,21.099900207504999
537,21.09971293524157
576,21.099884755780559
788,1032.5389129973724
847,0.0
890,0.31913027177415967
891,0.33751846860977299
892,0.17651909171211484
893,0.1529125303438993
1094,-17.3
1095,0.0094747843321255
1096,0.21380837003200538
1097,17.84429819832777
1098,0.29789480069525739
1099,17.30732991805612
1100,0.6201197690198855
1101,18.259872605984087
1102,0.6201197690198855
1103,0.3140224350833328
1104,0.04555184775060339
1105,0.1002140650513274
1106,23.781516733346718
1107,0.34344664844586078
1108,0.34344664844586078
1109,0.328587943416024
1110,17.84429819832777
1111,0.6201197690198854
1112,18.259872605984087
1113,0.04555184775060337
1114,17.98868962363345
1115,0.6201197690198854
2,1, 1,21, 0,12, 0.00,60.00,WinterDesignDay
379,17.844298198327786
418,21.099774416509914
457,929.0389875479557
458,0.0
459,21.099864822572437
498,21.099900207505006
537,21.099712935241564
576,21.099884755780566
788,1032.538912997372
847,0.0
890,0.31913027177415967
891,0.33751846860977299
892,0.17651909171211484
893,0.1529125303438993
1094,-17.3
1095,0.0094747843321255
1096,0.21380837003200538
1097,17.844298198327786
1098,0.29789480069525739
1099,17.30732991805613
1100,0.6201197690198855
1101,18.259872605984105
1102,0.6201197690198855
1103,0.3140224350833328
1104,0.04555184775060339
1105,0.1002140650513274
1106,23.78151673334673
1107,0.34344664844586078
1108,0.34344664844586078
1109,0.328587943416024
1110,17.844298198327786
1111,0.6201197690198854
1112,18.259872605984105
1113,0.04555184775060337
1114,17.988689623633467
1115,0.6201197690198854
2,1, 1,21, 0,13, 0.00,60.00,WinterDesignDay
379,17.84429819832777
418,21.09977441650988
457,929.0389875479552
458,0.0
459,21.099864822572444
498,21.099900207504999
537,21.09971293524155
576,21.099884755780559
788,1032.538912997372
847,0.0
890,0.31913027177415967
891,0.33751846860977299
892,0.17651909171211484
893,0.1529125303438993
1094,-17.3
1095,0.0094747843321255
1096,0.21380837003200538
1097,17.84429819832777
1098,0.29789480069525739
1099,17.30732991805612
1100,0.6201197690198855
1101,18.259872605984094
1102,0.6201197690198855
1103,0.3140224350833328
1104,0.04555184775060339
1105,0.1002140650513274
1106,23.78151673334672
1107,0.34344664844586078
1108,0.34344664844586078
1109,0.328587943416024
1110,17.84429819832777
1111,0.6201197690198854
1112,18.259872605984094
1113,0.04555184775060337
1114,17.988689623633456
1115,0.6201197690198854
2,1, 1,21, 0,14, 0.00,60.00,WinterDesignDay
379,17.844298198327768
418,21.0997744165099
457,929.038987547958
458,0.0
459,21.099864822572429
498,21.099900207505
537,21.099712935241507
576,21.099884755780555
788,1032.538912997372
847,0.0
890,0.31913027177415967
891,0.33751846860977299
892,0.17651909171211484
893,0.1529125303438993
1094,-17.3
1095,0.0094747843321255
1096,0.21380837003200538
1097,17.844298198327768
1098,0.29789480069525739
1099,17.307329918056117
1100,0.6201197690198855
1101,18.259872605984087
1102,0.6201197690198855
1103,0.3140224350833328
1104,0.04555184775060339
1105,0.1002140650513274
1106,23.781516733346714
1107,0.34344664844586078
1108,0.34344664844586078
1109,0.328587943416024
1110,17.844298198327768
1111,0.6201197690198854
1112,18.259872605984087
1113,0.04555184775060337
1114,17.98868962363345
1115,0.6201197690198854
2,1, 1,21, 0,15, 0.00,60.00,WinterDesignDay
379,17.84429819832776
418,21.099774416509886
457,929.0389875479584
458,0.0
459,21.099864822572408
498,21.099900207505
537,21.099712935241536
576,21.099884755780559
788,1032.5389129973724
847,0.0
890,0.31913027177415967
891,0.33751846860977299
892,0.17651909171211484
893,0.1529125303438993
1094,-17.3
1095,0.0094747843321255
1096,0.21380837003200538
1097,17.844298198327765
1098,0.29789480069525739
1099,17.307329918056113
1100,0.6201197690198855
1101,18.25987260598408
1102,0.6201197690198855
1103,0.3140224350833328
1104,0.04555184775060339
1105,0.1002140650513274
1106,23.781516733346707
1107,0.34344664844586078
1108,0.34344664844586078
1109,0.328587943416024
1110,17.844298198327765
1111,0.6201197690198854
1112,18.25987260598408
1113,0.04555184775060337
1114,17.988689623633446
1115,0.6201197690198854
2,1, 1,21, 0,16, 0.00,60.00,WinterDesignDay
379,17.844298198327765
418,21.09977441650989
457,929.0389875479598
458,0.0
459,21.099864822572408
498,21.099900207504999
537,21.099712935241564
576,21.099884755780559
788,1032.5389129973729
847,0.0
890,0.31913027177415967
891,0.33751846860977299
892,0.17651909171211484
893,0.1529125303438993
1094,-17.3
1095,0.0094747843321255
1096,0.21380837003200538
1097,17.844298198327765
1098,0.29789480069525739
1099,17.307329918056113
1100,0.6201197690198855
1101,18.259872605984083
1102,0.6201197690198855
1103,0.3140224350833328
1104,0.04555184775060339
1105,0.1002140650513274
1106,23.781516733346714
1107,0.34344664844586078
1108,0.34344664844586078
1109,0.328587943416024
1110,17.844298198327765
1111,0.6201197690198854
1112,18.259872605984083
1113,0.04555184775060337
1114,17.988689623633449
1115,0.6201197690198854
2,1, 1,21, 0,17, 0.00,60.00,WinterDesignDay
379,17.844298198327775
418,21.09977441650997
457,929.0389875479641
458,0.0
459,21.099864822572348
498,21.099900207505
537,21.099712935241553
576,21.09988475578056
788,1032.5389129973738
847,0.0
890,0.31913027177415967
891,0.33751846860977299
892,0.17651909171211484
893,0.1529125303438993
1094,-17.3
1095,0.0094747843321255
1096,0.21380837003200538
1097,17.844298198327768
1098,0.29789480069525739
1099,17.307329918056117
1100,0.6201197690198855
1101,18.259872605984087
1102,0.6201197690198855
1103,0.3140224350833328
1104,0.04555184775060339
1105,0.1002140650513274
1106,23.781516733346718
1107,0.34344664844586078
1108,0.34344664844586078
1109,0.328587943416024
1110,17.844298198327768
1111,0.6201197690198854
1112,18.259872605984087
1113,0.04555184775060337
1114,17.98868962363345
1115,0.6201197690198854
2,1, 1,21, 0,18, 0.00,60.00,WinterDesignDay
379,17.84429819832778
418,21.099774416509964
457,929.0389875479557
458,0.0
459,21.0998648225724
498,21.099900207505006
537,21.099712935241567
576,21.09988475578056
788,1032.538912997373
847,0.0
890,0.31913027177415967
891,0.33751846860977299
892,0.17651909171211484
893,0.1529125303438993
1094,-17.3
1095,0.0094747843321255
1096,0.21380837003200538
1097,17.84429819832778
1098,0.29789480069525739
1099,17.30732991805613
1100,0.6201197690198855
1101,18.2598726059841
1102,0.6201197690198855
1103,0.3140224350833328
1104,0.04555184775060339
1105,0.1002140650513274
1106,23.78151673334673
1107,0.34344664844586078
1108,0.34344664844586078
1109,0.328587943416024
1110,17.84429819832778
1111,0.6201197690198854
1112,18.2598726059841
1113,0.04555184775060337
1114,17.988689623633467
1115,0.6201197690198854
2,1, 1,21, 0,19, 0.00,60.00,WinterDesignDay
379,17.844298198327779
418,21.099774416509879
457,929.0389875479559
458,0.0
459,21.099864822572426
498,21.099900207505
537,21.099712935241553
576,21.09988475578056
788,1032.5389129973724
847,0.0
890,0.31913027177415967
891,0.33751846860977299
892,0.17651909171211484
893,0.1529125303438993
1094,-17.3
1095,0.0094747843321255
1096,0.21380837003200538
1097,17.844298198327779
1098,0.29789480069525739
1099,17.307329918056128
1100,0.6201197690198855
1101,18.2598726059841
1102,0.6201197690198855
1103,0.3140224350833328
1104,0.04555184775060339
1105,0.1002140650513274
1106,23.781516733346728
1107,0.34344664844586078
1108,0.34344664844586078
1109,0.328587943416024
1110,17.844298198327779
1111,0.6201197690198854
1112,18.2598726059841
1113,0.04555184775060337
1114,17.988689623633463
1115,0.6201197690198854
2,1, 1,21, 0,20, 0.00,60.00,WinterDesignDay
379,17.84429819832777
418,21.09977441650991
457,929.0389875479557
458,0.0
459,21.099864822572437
498,21.099900207505006
537,21.099712935241528
576,21.09988475578056
788,1032.5389129973724
847,0.0
890,0.31913027177415967
891,0.33751846860977299
892,0.17651909171211484
893,0.1529125303438993
1094,-17.3
1095,0.0094747843321255
1096,0.21380837003200538
1097,17.84429819832777
1098,0.29789480069525739
1099,17.30732991805612
1100,0.6201197690198855
1101,18.259872605984094
1102,0.6201197690198855
1103,0.3140224350833328
1104,0.04555184775060339
1105,0.1002140650513274
1106,23.78151673334672
1107,0.34344664844586078
1108,0.34344664844586078
1109,0.328587943416024
1110,17.84429819832777
1111,0.6201197690198854
1112,18.259872605984094
1113,0.04555184775060337
1114,17.988689623633456
1115,0.6201197690198854
2,1, 1,21, 0,21, 0.00,60.00,WinterDesignDay
379,17.84429819832777
418,21.099774416509896
457,929.0389875479566
458,0.0
459,21.099864822572437
498,21.099900207505
537,21.09971293524154
576,21.099884755780555
788,1032.5389129973724
847,0.0
890,0.31913027177415967
891,0.33751846860977299
892,0.17651909171211484
893,0.1529125303438993
1094,-17.3
1095,0.0094747843321255
1096,0.21380837003200538
1097,17.84429819832777
1098,0.29789480069525739
1099,17.307329918056117
1100,0.6201197690198855
1101,18.259872605984087
1102,0.6201197690198855
1103,0.3140224350833328
1104,0.04555184775060339
1105,0.1002140650513274
1106,23.78151673334672
1107,0.34344664844586078
1108,0.34344664844586078
1109,0.328587943416024
1110,17.84429819832777
1111,0.6201197690198854
1112,18.259872605984087
1113,0.04555184775060337
1114,17.988689623633456
1115,0.6201197690198854
2,1, 1,21, 0,22, 0.00,60.00,WinterDesignDay
379,17.84429819832777
418,21.099774416509889
457,929.0389875479564
458,0.0
459,21.099864822572437
498,21.099900207505006
537,21.09971293524155
576,21.099884755780559
788,1032.5389129973724
847,0.0
890,0.31913027177415967
891,0.33751846860977299
892,0.17651909171211484
893,0.1529125303438993
1094,-17.3
1095,0.0094747843321255
1096,0.21380837003200538
1097,17.84429819832777
1098,0.29789480069525739
1099,17.307329918056117
1100,0.6201197690198855
1101,18.25987260598409
1102,0.6201197690198855
1103,0.3140224350833328
1104,0.04555184775060339
1105,0.1002140650513274
1106,23.78151673334672
1107,0.34344664844586078
1108,0.34344664844586078
1109,0.328587943416024
1110,17.84429819832777
1111,0.6201197690198854
1112,18.25987260598409
1113,0.04555184775060337
1114,17.988689623633456
1115,0.6201197690198854
2,1, 1,21, 0,23, 0.00,60.00,WinterDesignDay
379,17.84429819832777
418,21.09977441650993
457,929.0389875479582
458,0.0
459,21.09986482257242
498,21.099900207505
537,21.099712935241557
576,21.099884755780559
788,1032.5389129973724
847,0.0
890,0.31913027177415967
891,0.33751846860977299
892,0.17651909171211484
893,0.1529125303438993
1094,-17.3
1095,0.0094747843321255
1096,0.21380837003200538
1097,17.84429819832777
1098,0.29789480069525739
1099,17.30732991805612
1100,0.6201197690198855
1101,18.259872605984087
1102,0.6201197690198855
1103,0.3140224350833328
1104,0.04555184775060339
1105,0.1002140650513274
1106,23.781516733346718
1107,0.34344664844586078
1108,0.34344664844586078
1109,0.328587943416024
1110,17.84429819832777
1111,0.6201197690198854
1112,18.259872605984087
1113,0.04555184775060337
1114,17.98868962363345
1115,0.6201197690198854
2,1, 1,21, 0,24, 0.00,60.00,WinterDesignDay
379,17.844298198327768
418,21.099774416509896
457,929.0389875479552
458,0.0
459,21.09986482257242
498,21.099900207505
537,21.099712935241575
576,21.099884755780559
788,1032.5389129973729
847,0.0
890,0.31913027177415967
891,0.33751846860977299
892,0.17651909171211484
893,0.1529125303438993
1094,-17.3
1095,0.0094747843321255
1096,0.21380837003200538
1097,17.84429819832777
1098,0.29789480069525739
1099,17.307329918056117
1100,0.6201197690198855
1101,18.259872605984087
1102,0.6201197690198855
1103,0.3140224350833328
1104,0.04555184775060339
1105,0.1002140650513274
1106,23.78151673334672
1107,0.34344664844586078
1108,0.34344664844586078
1109,0.328587943416024
1110,17.84429819832777
1111,0.6201197690198854
1112,18.259872605984087
1113,0.04555184775060337
1114,17.98868962363345
1115,0.6201197690198854
1,CHICAGO ANN CLG 1% CONDNS DB=>MWB,  39.74,-105.18,  -7.00,1829.00
2,1, 7,21, 0, 1, 0.00,60.00,SummerDesignDay
379,20.145930614992296
418,19.56157542482997
457,0.0
458,252.57748648581197
459,19.313109981593017
498,19.1441722809859
537,19.89614301046631
576,18.038535053967398
788,0.0
847,5462.805581806667
890,0.31913027177415967
891,0.33751846860977299
892,0.17651909171211484
893,0.1529125303438993
1094,22.32475
1095,0.0094747843321255
1096,0.21380837003200538
1097,20.26987461378627
1098,0.29789480069525739
1099,20.301702858236703
1100,0.6201197690198855
1101,12.99997288014875
1102,0.6201197690198855
1103,0.3140224350833328
1104,0.04555184775060339
1105,0.1002140650513274
1106,19.39335375083278
1107,0.34344664844586078
1108,0.34344664844586078
1109,0.328587943416024
1110,20.26987461378627
1111,0.6201197690198854
1112,12.99997288014875
1113,0.04555184775060337
1114,19.39335375083278
1115,0.6201197690198854
2,1, 7,21, 0, 2, 0.00,60.00,SummerDesignDay
379,19.724438444955415
418,19.300611537491425
457,0.0
458,247.31711999147798
459,19.116686640691975
498,18.96865397320118
537,19.544215780988976
576,17.928554207306957
788,0.0
847,5156.847349297683
890,0.31913027177415967
891,0.33751846860977299
892,0.17651909171211484
893,0.1529125303438993
1094,21.816499999999999
1095,0.0094747843321255
1096,0.21380837003200538
1097,19.81958591334035
1098,0.29789480069525739
1099,19.85051701191742
1100,0.6201197690198855
1101,12.99998266732944
1102,0.6201197690198855
1103,0.3140224350833328
1104,0.04555184775060339
1105,0.1002140650513274
1106,19.002770565732765
1107,0.34344664844586078
1108,0.34344664844586078
1109,0.328587943416024
1110,19.81958591334035
1111,0.6201197690198854
1112,12.99998266732944
1113,0.04555184775060337
1114,19.002770565732765
1115,0.6201197690198854
2,1, 7,21, 0, 3, 0.00,60.00,SummerDesignDay
379,19.401135149989103
418,19.102403843642678
457,0.0
458,243.32476013229826
459,18.969495940303387
498,18.83782333182949
537,19.277827944175415
576,17.846596978106154
788,0.0
847,4927.445539054877
890,0.31913027177415967
891,0.33751846860977299
892,0.17651909171211484
893,0.1529125303438993
1094,21.455375000000005
1095,0.0094747843321255
1096,0.21380837003200538
1097,19.47415986042356
1098,0.29789480069525739
1099,19.50484808999995
1100,0.6201197690198855
1101,12.999989151771523
1102,0.6201197690198855
1103,0.3140224350833328
1104,0.04555184775060339
1105,0.1002140650513274
1106,18.7031512664933
1107,0.34344664844586078
1108,0.34344664844586078
1109,0.328587943416024
1110,19.47415986042356
1111,0.6201197690198854
1112,12.999989151771523
1113,0.04555184775060337
1114,18.7031512664933
1115,0.6201197690198854
2,1, 7,21, 0, 4, 0.00,60.00,SummerDesignDay
379,19.15240974220194
418,18.94984263102325
457,0.0
458,240.1151441921304
459,18.857527110220326
498,18.738113110939318
537,19.074310429297094
576,17.78463389054322
788,0.0
847,4753.058516725785
890,0.31913027177415967
891,0.33751846860977299
892,0.17651909171211484
893,0.1529125303438993
1094,21.134375000000003
1095,0.0094747843321255
1096,0.21380837003200538
1097,19.20865942549934
1098,0.29789480069525739
1099,19.23848812629375
1100,0.6201197690198855
1101,12.999993300328324
1102,0.6201197690198855
1103,0.3140224350833328
1104,0.04555184775060339
1105,0.1002140650513274
1106,18.472860964111438
1107,0.34344664844586078
1108,0.34344664844586078
1109,0.328587943416024
1110,19.20865942549934
1111,0.6201197690198854
1112,12.999993300328324
1113,0.04555184775060337
1114,18.472860964111438
1115,0.6201197690198854
2,1, 7,21, 0, 5, 0.00,60.00,SummerDesignDay
379,18.960679156845928
418,18.831850277763146
457,0.0
458,237.64122859281293
459,18.7712074554173
498,18.66112542210415
537,18.917911649028324
576,17.737387954596526
788,0.0
847,4619.709251457792
890,0.31913027177415967
891,0.33751846860977299
892,0.17651909171211484
893,0.1529125303438993
1094,20.88025
1095,0.0094747843321255
1096,0.21380837003200538
1097,19.00398241844571
1098,0.29789480069525739
1099,19.033045250283288
1100,0.6201197690198855
1101,12.999995877020936
1102,0.6201197690198855
1103,0.3140224350833328
1104,0.04555184775060339
1105,0.1002140650513274
1106,18.295328803486215
1107,0.34344664844586078
1108,0.34344664844586078
1109,0.328587943416024
1110,19.00398241844571
1111,0.6201197690198854
1112,12.999995877020936
1113,0.04555184775060337
1114,18.295328803486215
1115,0.6201197690198854
2,1, 7,21, 0, 6, 0.00,60.00,SummerDesignDay
379,18.9012071925363
418,18.807375795848139
457,0.0
458,304.8394564067304
459,19.14945749727297
498,19.268248212554299
537,18.8646779780927
576,17.71483346852804
788,0.0
847,4549.224765300366
890,0.31913027177415967
891,0.33751846860977299
892,0.17651909171211484
893,0.1529125303438993
1094,20.933750000000005
1095,0.0094747843321255
1096,0.21380837003200538
1097,18.892144574420294
1098,0.29789480069525739
1099,18.92376850332922
1100,0.6201197690198855
1101,12.999688067233845
1102,0.6201197690198855
1103,0.3140224350833328
1104,0.04555184775060339
1105,0.1002140650513274
1106,18.19828249047128
1107,0.34344664844586078
1108,0.34344664844586078
1109,0.328587943416024
1110,18.892144574420294
1111,0.6201197690198854
1112,12.999688067233845
1113,0.04555184775060337
1114,18.19828249047128
1115,0.6201197690198854
2,1, 7,21, 0, 7, 0.00,60.00,SummerDesignDay
379,19.245710443278008
418,19.069888669046699
457,0.0
458,433.9598795055375
459,21.00716752753693
498,21.19173948401627
537,19.15666399481416
576,17.799996075195588
788,0.0
847,4728.494299030392
890,0.31913027177415967
891,0.33751846860977299
892,0.17651909171211484
893,0.1529125303438993
1094,21.482125000000005
1095,0.0094747843321255
1096,0.21380837003200538
1097,19.17258572468039
1098,0.29789480069525739
1099,19.208359995450487
1100,0.6201197690198855
1101,13.00000680540186
1102,0.6201197690198855
1103,0.3140224350833328
1104,0.04555184775060339
1105,0.1002140650513274
1106,18.441569502122968
1107,0.34344664844586078
1108,0.34344664844586078
1109,0.328587943416024
1110,19.17258572468039
1111,0.6201197690198854
1112,13.00000680540186
1113,0.04555184775060337
1114,18.441569502122968
1115,0.6201197690198854
2,1, 7,21, 0, 8, 0.00,60.00,SummerDesignDay
379,19.813205508385165
418,19.514718796192633
457,0.0
458,526.9405982140238
459,23.094765235538213
498,22.379382865244869
537,19.656779570999988
576,17.966857076151645
788,0.0
847,5086.4871947542
890,0.31913027177415967
891,0.33751846860977299
892,0.17824489534278976
893,0.1529125303438993
1094,22.899875
1095,0.0094747843321255
1096,0.21380837003200538