Program Version,EnergyPlus, Version 8.2.1-27b6d52898, YMD=2014.10.07 21:29
1,5,Environment Title[],Latitude[deg],Longitude[deg],Time Zone[],Elevation[m]
2,6,Day of Simulation[],Month[],Day of Month[],DST Indicator[1=yes 0=no],Hour[],StartMinute[],EndMinute[],DayType
3,3,Cumulative Day of Simulation[],Month[],Day of Month[],DST Indicator[1=yes 0=no],DayType  ! When Daily Meters Requested
4,2,Cumulative Days of Simulation[],Month[]  ! When Monthly Meters Requested
5,1,Cumulative Days of Simulation[] ! When Run Period Meters Requested
160,1,EnergyTransfer:Facility [J] !Hourly
170,1,EnergyTransfer:Building [J] !Hourly
180,1,EnergyTransfer:Zone:WEST ZONE [J] !Hourly
236,1,EnergyTransfer:Zone:EAST ZONE [J] !Hourly
272,1,EnergyTransfer:Zone:NORTH ZONE [J] !Hourly
315,1,EnergyTransfer:HVAC [J] !Hourly
583,1,EnergyTransfer:Plant [J] !Hourly
8,1,Electricity:Facility [J] !Hourly
18,1,Electricity:Building [J] !Hourly
28,1,Electricity:Zone:EAST ZONE [J] !Hourly
69,1,Electricity:Zone:NORTH ZONE [J] !Hourly
90,1,Electricity:Zone:WEST ZONE [J] !Hourly
416,1,Electricity:HVAC [J] !Hourly
562,1,Electricity:Plant [J] !Hourly
10,9,Electricity:Facility [J] !Monthly  [Value,Min,Day,Hour,Minute,Max,Day,Hour,Minute]
20,9,Electricity:Building [J] !Monthly  [Value,Min,Day,Hour,Minute,Max,Day,Hour,Minute]
40,9,InteriorLights:Electricity [J] !Monthly  [Value,Min,Day,Hour,Minute,Max,Day,Hour,Minute]
418,9,Electricity:HVAC [J] !Monthly  [Value,Min,Day,Hour,Minute,Max,Day,Hour,Minute]
564,9,Electricity:Plant [J] !Monthly  [Value,Min,Day,Hour,Minute,Max,Day,Hour,Minute]
11,11,Electricity:Facility [J] !RunPeriod [Value,Min,Month,Day,Hour,Minute,Max,Month,Day,Hour,Minute]
21,11,Electricity:Building [J] !RunPeriod [Value,Min,Month,Day,Hour,Minute,Max,Month,Day,Hour,Minute]
41,11,InteriorLights:Electricity [J] !RunPeriod [Value,Min,Month,Day,Hour,Minute,Max,Month,Day,Hour,Minute]
419,11,Electricity:HVAC [J] !RunPeriod [Value,Min,Month,Day,Hour,Minute,Max,Month,Day,Hour,Minute]
565,11,Electricity:Plant [J] !RunPeriod [Value,Min,Month,Day,Hour,Minute,Max,Month,Day,Hour,Minute]
End of Data Dictionary
1,CHICAGO ANN HTG 99% CONDNS DB,  41.98, -87.92,  -6.00, 201.00
2,1, 1,21, 0, 1, 0.00,60.00,WinterDesignDay
8,85827230.5338291
18,421740.036
28,263587.5
69,158152.536
90,0.0
160,85405490.4978291
170,0.0
180,0.0
236,0.0
272,0.0
315,85405490.4978291
416,85405490.4978291
562,0.0
583,0.0
2,1, 1,21, 0, 2, 0.00,60.00,WinterDesignDay
8,86141592.7794436
18,421740.036
28,263587.5
69,158152.536
90,0.0
160,85719852.7434436
170,0.0
180,0.0
236,0.0
272,0.0
315,85719852.7434436
416,85719852.7434436
562,0.0
583,0.0
2,1, 1,21, 0, 3, 0.00,60.00,WinterDesignDay
8,86415368.9386234
18,421740.036
28,263587.5
69,158152.536
90,0.0
160,85993628.9026234
170,0.0
180,0.0
236,0.0
272,0.0
315,85993628.9026234
416,85993628.9026234
562,0.0
583,0.0
2,1, 1,21, 0, 4, 0.00,60.00,WinterDesignDay
8,86654813.7127909
18,421740.036
28,263587.5
69,158152.536
90,0.0
160,86233073.676791
170,0.0
180,0.0
236,0.0
272,0.0
315,86233073.676791
416,86233073.676791
562,0.0
583,0.0
2,1, 1,21, 0, 5, 0.00,60.00,WinterDesignDay
8,86865022.8897706
18,421740.036
28,263587.5
69,158152.536
90,0.0
160,86443282.8537706
170,0.0
180,0.0
236,0.0
272,0.0
315,86443282.8537706
416,86443282.8537706
562,0.0
583,0.0
2,1, 1,21, 0, 6, 0.00,60.00,WinterDesignDay
8,87050205.2909314
18,421740.036
28,263587.5
69,158152.536
90,0.0
160,86628465.2549314
170,0.0
180,0.0
236,0.0
272,0.0
315,86628465.2549314
416,86628465.2549314
562,0.0
583,0.0
2,1, 1,21, 0, 7, 0.00,60.00,WinterDesignDay
8,88288292.5406744
18,1686960.144
28,1054350.
69,632610.144
90,0.0
160,86601332.3966744
170,0.0
180,0.0
236,0.0
272,0.0
315,86601332.3966744
416,86601332.3966744
562,0.0
583,0.0
2,1, 1,21, 0, 8, 0.00,60.00,WinterDesignDay
8,98434800.72
18,8434800.72
28,5271750.
69,3163050.72
90,0.0
160,90000000.
170,0.0
180,0.0
236,0.0
272,0.0
315,90000000.
416,90000000.
562,0.0
583,0.0
2,1, 1,21, 0, 9, 0.00,60.00,WinterDesignDay
8,124793557.92
18,34793557.92
28,10543500.
69,13706554.32
90,10543503.6
160,90000000.
170,0.0
180,0.0
236,0.0
272,0.0
315,90000000.
416,90000000.
562,0.0
583,0.0
2,1, 1,21, 0,10, 0.00,60.00,WinterDesignDay
8,124793557.92
18,34793557.92
28,10543500.
69,13706554.32
90,10543503.6
160,90000000.
170,0.0
180,0.0
236,0.0
272,0.0
315,90000000.
416,90000000.
562,0.0
583,0.0
2,1, 1,21, 0,11, 0.00,60.00,WinterDesignDay
8,124753302.090564
18,34793557.92
28,10543500.
69,13706554.32
90,10543503.6
160,89959744.1705636
170,0.0
180,0.0
236,0.0
272,0.0
315,89959744.1705636
416,89959744.1705636
562,0.0
583,0.0
2,1, 1,21, 0,12, 0.00,60.00,WinterDesignDay
8,122060300.436304
18,34793557.92
28,10543500.
69,13706554.32
90,10543503.6
160,87266742.5163037
170,0.0
180,0.0
236,0.0
272,0.0
315,87266742.5163037
416,87266742.5163037
562,0.0
583,0.0
2,1, 1,21, 0,13, 0.00,60.00,WinterDesignDay
8,120894324.27901
18,34793557.92
28,10543500.
69,13706554.32
90,10543503.6
160,86100766.3590096
170,0.0
180,0.0
236,0.0
272,0.0
315,86100766.3590096
416,86100766.3590096
562,0.0
583,0.0
2,1, 1,21, 0,14, 0.00,60.00,WinterDesignDay
8,120140417.987223
18,34793557.92
28,10543500.
69,13706554.32
90,10543503.6
160,85346860.0672229
170,0.0
180,0.0
236,0.0
272,0.0
315,85346860.0672229
416,85346860.0672229
562,0.0
583,0.0
2,1, 1,21, 0,15, 0.00,60.00,WinterDesignDay
8,119639802.508817
18,34793557.92
28,10543500.
69,13706554.32
90,10543503.6
160,84846244.5888174
170,0.0
180,0.0
236,0.0
272,0.0
315,84846244.5888174
416,84846244.5888174
562,0.0
583,0.0
2,1, 1,21, 0,16, 0.00,60.00,WinterDesignDay
8,119238642.049913
18,34793557.92
28,10543500.
69,13706554.32
90,10543503.6
160,84445084.1299127
170,0.0
180,0.0
236,0.0
272,0.0
315,84445084.1299127
416,84445084.1299127
562,0.0
583,0.0
2,1, 1,21, 0,17, 0.00,60.00,WinterDesignDay
8,119090416.269198
18,34793557.92
28,10543500.
69,13706554.32
90,10543503.6
160,84296858.3491982
170,0.0
180,0.0
236,0.0
272,0.0
315,84296858.3491982
416,84296858.3491982
562,0.0
583,0.0
2,1, 1,21, 0,18, 0.00,60.00,WinterDesignDay
8,102576157.56
18,30576157.56
28,7907625.
69,12125028.96
90,10543503.6
160,72000000.
170,0.0
180,0.0
236,0.0
272,0.0
315,72000000.
416,72000000.
562,0.0
583,0.0
2,1, 1,21, 0,19, 0.00,60.00,WinterDesignDay
8,77912516.876452
18,421740.036
28,263587.5
69,158152.536
90,0.0
160,77490776.840452
170,0.0
180,0.0
236,0.0
272,0.0
315,77490776.840452
416,77490776.840452
562,0.0
583,0.0
2,1, 1,21, 0,20, 0.00,60.00,WinterDesignDay
8,81524151.6690705
18,421740.036
28,263587.5
69,158152.536
90,0.0
160,81102411.6330705
170,0.0
180,0.0
236,0.0
272,0.0
315,81102411.6330705
416,81102411.6330705
562,0.0
583,0.0
2,1, 1,21, 0,21, 0.00,60.00,WinterDesignDay
8,83791676.7488428
18,421740.036
28,263587.5
69,158152.536
90,0.0
160,83369936.7128428
170,0.0
180,0.0
236,0.0
272,0.0
315,83369936.7128428
416,83369936.7128428
562,0.0
583,0.0
2,1, 1,21, 0,22, 0.00,60.00,WinterDesignDay
8,84532455.2364029
18,421740.036
28,263587.5
69,158152.536
90,0.0
160,84110715.2004029
170,0.0
180,0.0
236,0.0
272,0.0
315,84110715.2004029
416,84110715.2004029
562,0.0
583,0.0
2,1, 1,21, 0,23, 0.00,60.00,WinterDesignDay
8,85040850.8079376
18,421740.036
28,263587.5
69,158152.536
90,0.0
160,84619110.7719376
170,0.0
180,0.0
236,0.0
272,0.0
315,84619110.7719376
416,84619110.7719376
562,0.0
583,0.0
2,1, 1,21, 0,24, 0.00,60.00,WinterDesignDay
8,85463561.8795745
18,421740.036
28,263587.5
69,158152.536
90,0.0
160,85041821.8435745
170,0.0
180,0.0
236,0.0
272,0.0
315,85041821.8435745
416,85041821.8435745
562,0.0
583,0.0
4,1, 1
10,2401923019.64537,12341162.3647142,21,19,10,20798926.32,21, 9,10
20,358900820.135999,70290.006,21, 1,10,5798926.32,21, 9,10
40,95313248.1359999,70290.006,21, 1,10,1405800.12,21, 8,10
418,2043022199.50937,12000000.,21,18,10,15000000.,21, 8,10
564,0.0,0.0,21, 1,10,0.0,21, 1,10
5,1
11,2401923019.64537,12341162.3647142, 1,21,19,10,20798926.32, 1,21, 9,10
21,358900820.135999,70290.006, 1,21, 1,10,5798926.32, 1,21, 9,10
41,95313248.1359999,70290.006, 1,21, 1,10,1405800.12, 1,21, 8,10
419,2043022199.50937,12000000., 1,21,18,10,15000000., 1,21, 8,10
565,0.0,0.0, 1,21, 1,10,0.0, 1,21, 1,10
1,CHICAGO ANN CLG 1% CONDNS DB=>MWB,  41.98, -87.92,  -6.00, 201.00
2,1, 7,21, 0, 1, 0.00,60.00,SummerDesignDay
8,421740.036
18,421740.036
28,263587.5
69,158152.536
90,0.0
160,0.0
170,0.0
180,0.0
236,0.0
272,0.0
315,0.0
416,0.0
562,0.0
583,0.0
2,1, 7,21, 0, 2, 0.00,60.00,SummerDesignDay
8,421740.036
18,421740.036
28,263587.5
69,158152.536
90,0.0
160,0.0
170,0.0
180,0.0
236,0.0
272,0.0
315,0.0
416,0.0
562,0.0
583,0.0
2,1, 7,21, 0, 3, 0.00,60.00,SummerDesignDay
8,421740.036
18,421740.036
28,263587.5
69,158152.536
90,0.0
160,0.0
170,0.0
180,0.0
236,0.0
272,0.0
315,0.0
416,0.0
562,0.0
583,0.0
2,1, 7,21, 0, 4, 0.00,60.00,SummerDesignDay
8,421740.036
18,421740.036
28,263587.5
69,158152.536
90,0.0
160,0.0
170,0.0
180,0.0
236,0.0
272,0.0
315,0.0
416,0.0
562,0.0
583,0.0
2,1, 7,21, 0, 5, 0.00,60.00,SummerDesignDay
8,421740.036
18,421740.036
28,263587.5
69,158152.536
90,0.0
160,0.0
170,0.0
180,0.0
236,0.0
272,0.0
315,0.0
416,0.0
562,0.0
583,0.0
2,1, 7,21, 0, 6, 0.00,60.00,SummerDesignDay
8,421740.036
18,421740.036
28,263587.5
69,158152.536
90,0.0
160,0.0
170,0.0
180,0.0
236,0.0
272,0.0
315,0.0
416,0.0
562,0.0
583,0.0
2,1, 7,21, 0, 7, 0.00,60.00,SummerDesignDay
8,1686960.144
18,1686960.144
28,1054350.
69,632610.144
90,0.0
160,0.0
170,0.0
180,0.0
236,0.0
272,0.0
315,0.0
416,0.0
562,0.0
583,0.0
2,1, 7,21, 0, 8, 0.00,60.00,SummerDesignDay
8,28867533.1629907
18,8434800.72
28,5271750.
69,3163050.72
90,0.0
160,178817303.25595
170,35843636.6951325
180,10920127.0252277
236,11207738.0267801
272,13715771.6431247
315,42785377.4157655
416,4011428.57142857
562,16421303.8715621
583,100188289.145052
2,1, 7,21, 0, 9, 0.00,60.00,SummerDesignDay
8,56024756.133521
18,34793557.92
28,10543500.
69,13706554.32
90,10543503.6
160,198020974.970142
170,43082532.2977998
180,14188877.9901632
236,12569566.1875016
272,16324088.1201349
315,47799156.643473
416,4011428.57142857
562,17219769.6420924
583,107139286.028869
2,1, 7,21, 0,10, 0.00,60.00,SummerDesignDay
8,65075447.5659723
18,34793557.92
28,10543500.
69,13706554.32
90,10543503.6
160,217212549.464266
170,45064212.9651293
180,14953054.8554279
236,13098682.3645701
272,17012475.7451313
315,50446360.1883213
416,4011428.57142857
562,26270461.0745437
583,121701976.310815
2,1, 7,21, 0,11, 0.00,60.00,SummerDesignDay
8,65869164.6911934
18,34793557.92
28,10543500.
69,13706554.32
90,10543503.6
160,225478777.648036
170,46836803.6239917
180,15757516.7872808
236,13598753.9409474
272,17480532.8957635
315,52297296.5066283
416,4011428.57142857
562,27064178.1997648
583,126344677.517416
2,1, 7,21, 0,12, 0.00,60.00,SummerDesignDay
8,66685796.053215
18,34793557.92
28,10543500.
69,13706554.32
90,10543503.6
160,234185450.925603
170,48773687.1812339
180,16683521.2258912
236,14130463.3105397
272,17959702.644803
315,54293642.9033486
416,4011428.57142857
562,27880809.5617864
583,131118120.841021
2,1, 7,21, 0,13, 0.00,60.00,SummerDesignDay
8,67130262.7906751
18,34793557.92
28,10543500.
69,13706554.32
90,10543503.6
160,239164404.082151
170,50038985.392282
180,17375162.3161554
236,14472595.0396823
272,18191228.0364444
315,55402568.4805683
416,4011428.57142857
562,28325276.2992465
583,133722850.2093
2,1, 7,21, 0,14, 0.00,60.00,SummerDesignDay
8,67814808.5372493
18,34793557.92
28,10543500.
69,13706554.32
90,10543503.6
160,246735065.261655
170,51925052.1586088
180,18186031.6540059
236,15006570.5907002
272,18732449.9139027
315,57067245.9849211
416,4011428.57142857
562,29009822.0458207
583,137742767.118125
2,1, 7,21, 0,15, 0.00,60.00,SummerDesignDay
8,68556328.2846277
18,34793557.92
28,10543500.
69,13706554.32
90,10543503.6
160,253960192.644672
170,53112245.7674611
180,18611054.1873813
236,15357612.3918013
272,19143579.1882785
315,58775951.1187028
416,4011428.57142857
562,29751341.7931991
583,142071995.758508
2,1, 7,21, 0,16, 0.00,60.00,SummerDesignDay
8,68992886.9131175
18,34793557.92
28,10543500.
69,13706554.32
90,10543503.6
160,258455037.463795
170,54002610.6164776
180,18781912.5409077
236,15623873.5524539
272,19596824.523116
315,59832023.3161352
416,4011428.57142857
562,30187900.4216889
583,144620403.531182
2,1, 7,21, 0,17, 0.00,60.00,SummerDesignDay
8,69125467.2807619
18,34793557.92
28,10543500.
69,13706554.32
90,10543503.6
160,259708080.13803
170,54303368.0227184
180,18723685.0570092
236,15664906.6483929
272,19914776.3173163
315,60024770.2383547
416,4011428.57142857
562,30320480.7893334
583,145379941.876957
2,1, 7,21, 0,18, 0.00,60.00,SummerDesignDay
8,30576157.56
18,30576157.56
28,7907625.
69,12125028.96
90,10543503.6
160,0.0
170,0.0
180,0.0
236,0.0
272,0.0
315,0.0
416,0.0
562,0.0
583,0.0
2,1, 7,21, 0,19, 0.00,60.00,SummerDesignDay
8,421740.036
18,421740.036
28,263587.5
69,158152.536
90,0.0
160,0.0
170,0.0
180,0.0
236,0.0
272,0.0
315,0.0
416,0.0
562,0.0
583,0.0
2,1, 7,21, 0,20, 0.00,60.00,SummerDesignDay
8,421740.036
18,421740.036
28,263587.5
69,158152.536
90,0.0
160,0.0
170,0.0
180,0.0
236,0.0
272,0.0
315,0.0
416,0.0
562,0.0
583,0.0
2,1, 7,21, 0,21, 0.00,60.00,SummerDesignDay
8,421740.036
18,421740.036
28,263587.5
69,158152.536
90,0.0
160,0.0
170,0.0
180,0.0
236,0.0
272,0.0
315,0.0
416,0.0
562,0.0
583,0.0
2,1, 7,21, 0,22, 0.00,60.00,SummerDesignDay
8,421740.036
18,421740.036
28,263587.5
69,158152.536
90,0.0
160,0.0
170,0.0
180,0.0
236,0.0
272,0.0
315,0.0
416,0.0
562,0.0
583,0.0
2,1, 7,21, 0,23, 0.00,60.00,SummerDesignDay
8,421740.036
18,421740.036
28,263587.5
69,158152.536
90,0.0
160,0.0
170,0.0
180,0.0
236,0.0
272,0.0
315,0.0
416,0.0
562,0.0
583,0.0
2,1, 7,21, 0,24, 0.00,60.00,SummerDesignDay
8,421740.036
18,421740.036
28,263587.5
69,158152.536
90,0.0
160,0.0
170,0.0
180,0.0
236,0.0
272,0.0
315,0.0
416,0.0
562,0.0
583,0.0
4,1, 7
10,661466449.549325,70290.006,21, 1,10,11538959.5585857,21,16,60
20,358900820.135999,70290.006,21, 1,10,5798926.32,21, 9,10
40,95313248.1359999,70290.006,21, 1,10,1405800.12,21, 8,10
418,40114285.7142857,0.0,21, 1,10,668571.428571429,21, 8,10
564,262451343.699038,0.0,21, 1,10,5071461.81001432,21,16,60
5,1
11,661466449.549325,70290.006, 7,21, 1,10,11538959.5585857, 7,21,16,60
21,358900820.135999,70290.006, 7,21, 1,10,5798926.32, 7,21, 9,10
41,95313248.1359999,70290.006, 7,21, 1,10,1405800.12, 7,21, 8,10
419,40114285.7142857,0.0, 7,21, 1,10,668571.428571429, 7,21, 8,10
565,262451343.699038,0.0, 7,21, 1,10,5071461.81001432, 7,21,16,60
End of Data
 Number of Records Written=         692
