Program Version,EnergyPlus, Version 8.2.1-27b6d52898, YMD=2014.10.07 20:48
1,5,Environment Title[],Latitude[deg],Longitude[deg],Time Zone[],Elevation[m]
2,6,Day of Simulation[],Month[],Day of Month[],DST Indicator[1=yes 0=no],Hour[],StartMinute[],EndMinute[],DayType
3,3,Cumulative Day of Simulation[],Month[],Day of Month[],DST Indicator[1=yes 0=no],DayType  ! When Daily Report Variables Requested
4,2,Cumulative Days of Simulation[],Month[]  ! When Monthly Report Variables Requested
5,1,Cumulative Days of Simulation[] ! When Run Period Report Variables Requested
151,1,ZN001:FLR001,Surface Internal Source Location Temperature [C] !TimeStep
152,1,ZN002:FLR001,Surface Internal Source Location Temperature [C] !TimeStep
153,1,ZN003:FLR001,Surface Inside Face Temperature [C] !TimeStep
154,1,ZN003:FLR001,Surface Internal Source Location Temperature [C] !TimeStep
155,1,WEST ZONE,Zone Mean Radiant Temperature [C] !TimeStep
156,1,EAST ZONE,Zone Mean Radiant Temperature [C] !TimeStep
157,1,NORTH ZONE,Zone Mean Radiant Temperature [C] !TimeStep
158,1,WEST ZONE,Zone Mean Air Temperature [C] !TimeStep
159,1,EAST ZONE,Zone Mean Air Temperature [C] !TimeStep
160,1,NORTH ZONE,Zone Mean Air Temperature [C] !TimeStep
161,1,WEST ZONE,Zone Air System Sensible Heating Energy [J] !TimeStep
212,1,WEST ZONE,Zone Air System Sensible Cooling Energy [J] !TimeStep
233,1,WEST ZONE,Zone Air System Sensible Heating Rate [W] !TimeStep
234,1,WEST ZONE,Zone Air System Sensible Cooling Rate [W] !TimeStep
235,1,WEST ZONE,Zone Air Temperature [C] !TimeStep
236,1,WEST ZONE,Zone Air Humidity Ratio [] !TimeStep
237,1,EAST ZONE,Zone Air System Sensible Heating Energy [J] !TimeStep
258,1,EAST ZONE,Zone Air System Sensible Cooling Energy [J] !TimeStep
269,1,EAST ZONE,Zone Air System Sensible Heating Rate [W] !TimeStep
270,1,EAST ZONE,Zone Air System Sensible Cooling Rate [W] !TimeStep
271,1,EAST ZONE,Zone Air Temperature [C] !TimeStep
272,1,EAST ZONE,Zone Air Humidity Ratio [] !TimeStep
273,1,NORTH ZONE,Zone Air System Sensible Heating Energy [J] !TimeStep
294,1,NORTH ZONE,Zone Air System Sensible Cooling Energy [J] !TimeStep
305,1,NORTH ZONE,Zone Air System Sensible Heating Rate [W] !TimeStep
306,1,NORTH ZONE,Zone Air System Sensible Cooling Rate [W] !TimeStep
307,1,NORTH ZONE,Zone Air Temperature [C] !TimeStep
308,1,NORTH ZONE,Zone Air Humidity Ratio [] !TimeStep
309,1,SimHVAC,HVAC System Solver Iteration Count [] !TimeStep
310,1,CHILLED WATER LOOP,Plant Supply Side Cooling Demand Rate [W] !TimeStep
311,1,CHILLED WATER LOOP,Plant Supply Side Heating Demand Rate [W] !TimeStep
312,1,HOT WATER LOOP,Plant Supply Side Cooling Demand Rate [W] !TimeStep
313,1,HOT WATER LOOP,Plant Supply Side Heating Demand Rate [W] !TimeStep
314,1,CHILLED WATER CONDENSER LOOP,Plant Supply Side Cooling Demand Rate [W] !TimeStep
315,1,CHILLED WATER CONDENSER LOOP,Plant Supply Side Heating Demand Rate [W] !TimeStep
316,1,WEST ZONE RADIANT FLOOR,Zone Radiant HVAC Heating Rate [W] !TimeStep
317,1,WEST ZONE RADIANT FLOOR,Zone Radiant HVAC Heating Energy [J] !TimeStep
369,1,WEST ZONE RADIANT FLOOR,Zone Radiant HVAC Cooling Rate [W] !TimeStep
370,1,WEST ZONE RADIANT FLOOR,Zone Radiant HVAC Cooling Energy [J] !TimeStep
412,1,WEST ZONE RADIANT FLOOR,Zone Radiant HVAC Mass Flow Rate [kg/s] !TimeStep
413,1,WEST ZONE RADIANT FLOOR,Zone Radiant HVAC Injection Mass Flow Rate [kg/s] !TimeStep
414,1,WEST ZONE RADIANT FLOOR,Zone Radiant HVAC Recirculation Mass Flow Rate [kg/s] !TimeStep
415,1,WEST ZONE RADIANT FLOOR,Zone Radiant HVAC Inlet Temperature [C] !TimeStep
416,1,WEST ZONE RADIANT FLOOR,Zone Radiant HVAC Outlet Temperature [C] !TimeStep
417,1,WEST ZONE RADIANT FLOOR,Zone Radiant HVAC Pump Inlet Temperature [C] !TimeStep
418,1,WEST ZONE RADIANT FLOOR,Zone Radiant HVAC Pump Electric Power [W] !TimeStep
419,1,WEST ZONE RADIANT FLOOR,Zone Radiant HVAC Pump Electric Energy [J] !TimeStep
440,1,WEST ZONE RADIANT FLOOR,Zone Radiant HVAC Pump Mass Flow Rate [kg/s] !TimeStep
441,1,WEST ZONE RADIANT FLOOR,Zone Radiant HVAC Pump Fluid Heat Gain Rate [W] !TimeStep
442,1,WEST ZONE RADIANT FLOOR,Zone Radiant HVAC Pump Fluid Heat Gain Energy [J] !TimeStep
443,1,WEST ZONE RADIANT FLOOR,Zone Radiant HVAC Moisture Condensation Time [s] !TimeStep
444,1,EAST ZONE RADIANT FLOOR,Zone Radiant HVAC Heating Rate [W] !TimeStep
445,1,EAST ZONE RADIANT FLOOR,Zone Radiant HVAC Heating Energy [J] !TimeStep
447,1,EAST ZONE RADIANT FLOOR,Zone Radiant HVAC Cooling Rate [W] !TimeStep
448,1,EAST ZONE RADIANT FLOOR,Zone Radiant HVAC Cooling Energy [J] !TimeStep
450,1,EAST ZONE RADIANT FLOOR,Zone Radiant HVAC Mass Flow Rate [kg/s] !TimeStep
451,1,EAST ZONE RADIANT FLOOR,Zone Radiant HVAC Injection Mass Flow Rate [kg/s] !TimeStep
452,1,EAST ZONE RADIANT FLOOR,Zone Radiant HVAC Recirculation Mass Flow Rate [kg/s] !TimeStep
453,1,EAST ZONE RADIANT FLOOR,Zone Radiant HVAC Inlet Temperature [C] !TimeStep
454,1,EAST ZONE RADIANT FLOOR,Zone Radiant HVAC Outlet Temperature [C] !TimeStep
455,1,EAST ZONE RADIANT FLOOR,Zone Radiant HVAC Pump Inlet Temperature [C] !TimeStep
456,1,EAST ZONE RADIANT FLOOR,Zone Radiant HVAC Pump Electric Power [W] !TimeStep
457,1,EAST ZONE RADIANT FLOOR,Zone Radiant HVAC Pump Electric Energy [J] !TimeStep
458,1,EAST ZONE RADIANT FLOOR,Zone Radiant HVAC Pump Mass Flow Rate [kg/s] !TimeStep
459,1,EAST ZONE RADIANT FLOOR,Zone Radiant HVAC Pump Fluid Heat Gain Rate [W] !TimeStep
460,1,EAST ZONE RADIANT FLOOR,Zone Radiant HVAC Pump Fluid Heat Gain Energy [J] !TimeStep
461,1,EAST ZONE RADIANT FLOOR,Zone Radiant HVAC Moisture Condensation Time [s] !TimeStep
462,1,NORTH ZONE RADIANT FLOOR,Zone Radiant HVAC Heating Rate [W] !TimeStep
463,1,NORTH ZONE RADIANT FLOOR,Zone Radiant HVAC Heating Energy [J] !TimeStep
465,1,NORTH ZONE RADIANT FLOOR,Zone Radiant HVAC Cooling Rate [W] !TimeStep
466,1,NORTH ZONE RADIANT FLOOR,Zone Radiant HVAC Cooling Energy [J] !TimeStep
468,1,NORTH ZONE RADIANT FLOOR,Zone Radiant HVAC Mass Flow Rate [kg/s] !TimeStep
469,1,NORTH ZONE RADIANT FLOOR,Zone Radiant HVAC Injection Mass Flow Rate [kg/s] !TimeStep
470,1,NORTH ZONE RADIANT FLOOR,Zone Radiant HVAC Recirculation Mass Flow Rate [kg/s] !TimeStep
471,1,NORTH ZONE RADIANT FLOOR,Zone Radiant HVAC Inlet Temperature [C] !TimeStep
472,1,NORTH ZONE RADIANT FLOOR,Zone Radiant HVAC Outlet Temperature [C] !TimeStep
473,1,NORTH ZONE RADIANT FLOOR,Zone Radiant HVAC Pump Inlet Temperature [C] !TimeStep
474,1,NORTH ZONE RADIANT FLOOR,Zone Radiant HVAC Pump Electric Power [W] !TimeStep
475,1,NORTH ZONE RADIANT FLOOR,Zone Radiant HVAC Pump Electric Energy [J] !TimeStep
476,1,NORTH ZONE RADIANT FLOOR,Zone Radiant HVAC Pump Mass Flow Rate [kg/s] !TimeStep
477,1,NORTH ZONE RADIANT FLOOR,Zone Radiant HVAC Pump Fluid Heat Gain Rate [W] !TimeStep
478,1,NORTH ZONE RADIANT FLOOR,Zone Radiant HVAC Pump Fluid Heat Gain Energy [J] !TimeStep
479,1,NORTH ZONE RADIANT FLOOR,Zone Radiant HVAC Moisture Condensation Time [s] !TimeStep
650,1,PURCHASED HEATING,District Heating Rate [W] !TimeStep
682,1,PURCHASED COOLING,District Cooling Rate [W] !TimeStep
759,1,WEST ZONE,Zone Thermal Comfort Fanger Model PMV [] !TimeStep
760,1,EAST ZONE,Zone Thermal Comfort Fanger Model PMV [] !TimeStep
761,1,NORTH ZONE,Zone Thermal Comfort Fanger Model PMV [] !TimeStep
End of Data Dictionary
1,CHICAGO ANN HTG 99% CONDNS DB,  41.98, -87.92,  -6.00, 201.00
2,1, 1,21, 0, 1, 0.00,10.00,WinterDesignDay
151,35.8892618623883
152,35.6970287380625
153,17.1373970329674
154,18.0101284693646
155,17.5937692729248
156,17.6799615817747
157,7.22634497301935
158,18.023610365893
159,18.0978955668102
160,7.12851737897797
759,-0.901642960602157
760,-0.886296397965793
761,-2.93889686756488
161,0.0
212,0.0
233,0.0
234,0.0
235,18.023610365893
236,1.115904321479624E-03
237,0.0
258,0.0
269,0.0
270,0.0
271,18.0978955668102
272,1.112730561073562E-03
273,0.0
294,0.0
305,0.0
306,0.0
307,7.12851737897797
308,9.461624074170433E-04
310,0.0
311,0.0
312,0.0
313,17926.8224651885
314,0.0
315,0.0
316,6730.4674142009
317,4038280.44852054
369,0.0
370,0.0
412,0.3999592
413,6.635213524708264E-02
414,0.333607064752917
415,39.9181083476616
416,35.8922985438889
417,39.8917317026441
418,50.
419,30000.
440,0.3999592
441,44.15
442,26490.
443,0.0
444,6634.92743496078
445,3980956.46097647
447,0.0
448,0.0
450,0.3999592
451,6.488856418808524E-02
452,0.335070635811915
453,39.6694502907547
454,35.7007874518815
455,39.6430736457372
456,50.
457,30000.
458,0.3999592
459,44.15
460,26490.
461,0.0
462,5068.49605903614
463,3041097.63542168
465,0.0
466,0.0
468,4.999490000000000E-02
469,2.861857186692775E-02
470,2.137632813307225E-02
471,42.2530695230827
472,17.9994183346991
473,42.0420563629423
474,50.
475,30000.
476,4.999490000000000E-02
477,44.15
478,26490.
479,0.0
650,17926.8224651885
682,0.0
309,1.
2,1, 1,21, 0, 1,10.00,20.00,WinterDesignDay
151,35.8916169177089
152,35.7002899173144
153,17.1263221940864
154,18.0004275312201
155,17.5920045491723
156,17.6779826246763
157,7.19950310523549
158,18.0226636547422
159,18.0966594034697
160,7.10391355127665
759,-0.902482331293975
760,-0.887181227510794
761,-2.94397810458709
161,0.0
212,0.0
233,0.0
234,0.0
235,18.0226636547422
236,1.099693690392137E-03
237,0.0
258,0.0
269,0.0
270,0.0
271,18.0966594034697
272,1.096701804363512E-03
273,0.0
294,0.0
305,0.0
306,0.0
307,7.10391355127665
308,9.401161964525678E-04
310,0.0
311,0.0
312,0.0
313,17940.4675738628
314,0.0
315,0.0
316,6731.86366977713
317,4039118.20186628
369,0.0
370,0.0
412,0.3999592
413,6.637247552292071E-02
414,0.333586724477079
415,39.9212987803567
416,35.8946538103107
417,39.8949221353392
418,50.
419,30000.
440,0.3999592
441,44.15
442,26490.
443,0.0
444,6636.5499434901
445,3981929.96609406
447,0.0
448,0.0
450,0.3999592
451,6.491324892235925E-02
452,0.335045951077641
453,39.6736814439661
454,35.7040481062639
455,39.6473047989485
456,50.
457,30000.
458,0.3999592
459,44.15
460,26490.
461,0.0
462,5078.03277532428
463,3046819.66519457
465,0.0
466,0.0
468,4.999490000000000E-02
469,2.866624233094999E-02
470,2.132865766905001E-02
471,42.2889603996195
472,17.9896743350041
473,42.0779472394791
474,50.
475,30000.
476,4.999490000000000E-02
477,44.15
478,26490.
479,0.0
650,17940.4675738628
682,0.0
309,1.
2,1, 1,21, 0, 1,20.00,30.00,WinterDesignDay
151,35.893943968337
152,35.7034624971417
153,17.1155365857388
154,17.9909861405238
155,17.5902490639849
156,17.6760458613464
157,7.17328779964282
158,18.0217276369413
159,18.0954556300375
160,7.07988106738847
759,-0.903285654048072
760,-0.888025080152249
761,-2.94893303319079
161,0.0
212,0.0
233,0.0
234,0.0
235,18.0217276369413
236,1.084432261923113E-03
237,0.0
258,0.0
269,0.0
270,0.0
271,18.0954556300375
272,1.081611837215021E-03
273,0.0
294,0.0
305,0.0
306,0.0
307,7.07988106738847
308,9.344114222100509E-04
310,0.0
311,0.0
312,0.0
313,17953.7803299753
314,0.0
315,0.0
316,6733.24871457113
317,4039949.22874268
369,0.0
370,0.0
412,0.3999592
413,6.639263131031717E-02
414,0.333566568689683
415,39.9244544841927
416,35.8969810535707
417,39.8980778391751
418,50.
419,30000.
440,0.3999592
441,44.15
442,26490.
443,0.0
444,6638.13563419276
445,3982881.38051565
447,0.0
448,0.0
450,0.3999592
451,6.493734089924356E-02
452,0.335021859100756
453,39.6778019884345
454,35.7072201743808
455,39.6514253434169
456,50.
457,30000.
458,0.3999592
459,44.15
460,26490.
461,0.0
462,5087.31911442886
463,3052391.46865731
465,0.0
466,0.0
468,4.999490000000000E-02
469,2.871264338414661E-02
470,2.128225661585340E-02
471,42.3239139373262
472,17.9801910956401
473,42.1129007771858
474,50.
475,30000.
476,4.999490000000000E-02
477,44.15
478,26490.
479,0.0
650,17953.7803299753
682,0.0
309,1.
2,1, 1,21, 0, 1,30.00,40.00,WinterDesignDay
151,35.8962432982064
152,35.7065493422271
153,17.1050280186912
154,17.9817926503575
155,17.5885037992836
156,17.6741502192163
157,7.14768056181418
158,18.0208028039817
159,18.0942833801513
160,7.05640323239645
759,-0.904054810992544
760,-0.888830110010872
761,-2.95376576270991
161,0.0
212,0.0
233,0.0
234,0.0
235,18.0208028039817
236,1.070064407753431E-03
237,0.0
258,0.0
269,0.0
270,0.0
271,18.0942833801513
272,1.067405626409729E-03
273,0.0
294,0.0
305,0.0
306,0.0
307,7.05640323239645
308,9.290287597354786E-04
310,0.0
311,0.0
312,0.0
313,17966.7709572877
314,0.0
315,0.0
316,6734.6205612307
317,4040772.33673842
369,0.0
370,0.0
412,0.3999592
413,6.641258351070813E-02
414,0.333546616489292
415,39.9275745435289
416,35.8992805467573
417,39.9011978985113
418,50.
419,30000.
440,0.3999592
441,44.15
442,26490.
443,0.0
444,6639.68412998464
445,3983810.47799079
447,0.0
448,0.0
450,0.3999592
451,6.496084357898778E-02
452,0.334998356421012
453,39.6818145665415
454,35.7103065241658
455,39.655437921524
456,50.
457,30000.
458,0.3999592
459,44.15
460,26490.
461,0.0
462,5096.36578082788
463,3057819.46849673
465,0.0
466,0.0
468,4.999490000000000E-02
469,2.875782966904816E-02
470,2.123707033095185E-02
471,42.3579696502034
472,17.9709569077846
473,42.146956490063
474,50.
475,30000.
476,4.999490000000000E-02
477,44.15
478,26490.
479,0.0
650,17966.7709572877
682,0.0
309,1.
2,1, 1,21, 0, 1,40.00,50.00,WinterDesignDay
151,35.8985145101168
152,35.7095530803449
153,17.0947853138841
154,17.9728364421789
155,17.5867694573489
156,17.672294606822
157,7.12266376335804
158,18.0198892040563
159,18.0931415631532
160,7.03346403274398
759,-0.904791568845937
760,-0.88959836498707
761,-2.95848018419195
161,0.0
212,0.0
233,0.0
234,0.0
235,18.0198892040563
236,1.056537765016188E-03
237,0.0
258,0.0
269,0.0
270,0.0
271,18.0931415631532
272,1.054031370296254E-03
273,0.0
294,0.0
305,0.0
306,0.0
307,7.03346403274398
308,9.239499815048543E-04
310,0.0
311,0.0
312,0.0
313,17979.449143373
314,0.0
315,0.0
316,6735.97710234456
317,4041586.26140674
369,0.0
370,0.0
412,0.3999592
413,6.643231003443499E-02
414,0.333526889965565
415,39.9306573200609
416,35.901551912108
417,39.9042806750433
418,50.
419,30000.
440,0.3999592
441,44.15
442,26490.
443,0.0
444,6641.19584801413
445,3984717.50880848
447,0.0
448,0.0
450,0.3999592
451,6.498376765660942E-02
452,0.334975432343391
453,39.6857220661623
454,35.7133097939777
455,39.6593454211448
456,50.
457,30000.
458,0.3999592
459,44.15
460,26490.
461,0.0
462,5105.18256712531
463,3063109.54027519
465,0.0
466,0.0
468,4.999490000000000E-02
469,2.880185121050284E-02
470,2.119304878949716E-02
471,42.3911637317678
472,17.9619611056104
473,42.1801505716274
474,50.
475,30000.
476,4.999490000000000E-02
477,44.15
478,26490.
479,0.0
650,17979.449143373
682,0.0
309,1.
2,1, 1,21, 0, 1,50.00,60.00,WinterDesignDay
151,35.9007574810776
152,35.7124764926775
153,17.0847981725658
154,17.9641077916544
155,17.58504669129
156,17.6704780106611
157,7.09822056611845
158,18.0189865780856
159,18.0920290681992
160,7.01104812754524
759,-0.905497635632187
760,-0.890331801037381
761,-2.96308001329874
161,0.0
212,0.0
233,0.0
234,0.0
235,18.0189865780856
236,1.043803044025520E-03
237,0.0
258,0.0
269,0.0
270,0.0
271,18.0920290681992
272,1.041440308430660E-03
273,0.0
294,0.0
305,0.0
306,0.0
307,7.01104812754524
308,9.191578947832661E-04
310,0.0
311,0.0
312,0.0
313,17991.8244689319
314,0.0
315,0.0
316,6737.31825141044
317,4042390.95084626
369,0.0
370,0.0
412,0.3999592
413,6.645180958945050E-02
414,0.333507390410549
415,39.9337026531455
416,35.9037950407207
417,39.907326008128
418,50.
419,30000.
440,0.3999592
441,44.15
442,26490.
443,0.0
444,6642.67221357267
445,3985603.3281436
447,0.0
448,0.0
450,0.3999592
451,6.500613417347362E-02
452,0.334953065826526
453,39.6895281228228
454,35.7162327668086
455,39.6631514778053
456,50.
457,30000.
458,0.3999592
459,44.15
460,26490.
461,0.0
462,5113.77848558724
463,3068267.09135234
465,0.0
466,0.0
468,4.999490000000000E-02
469,2.884475408002399E-02
470,2.115014591997601E-02
471,42.4235295377436
472,17.9531939195525
473,42.2125163776032
474,50.
475,30000.
476,4.999490000000000E-02
477,44.15
478,26490.
479,0.0
650,17991.8244689319
682,0.0
309,1.
2,1, 1,21, 0, 2, 0.00,10.00,WinterDesignDay
151,35.9029725476704
152,35.7153224154068
153,17.0750570733561
154,17.9555977583308
155,17.5833361795148
156,17.6686994828351
157,7.07433486181469
158,18.0180947292858
159,18.0909449175738
160,6.98914087863975
759,-0.906174646171204
760,-0.891032267980345
761,-2.96756879828902
161,0.0
212,0.0
233,0.0
234,0.0
235,18.0180947292858
236,1.031813847387066E-03
237,0.0
258,0.0
269,0.0
270,0.0
271,18.0909449175738
272,1.029586542492768E-03
273,0.0
294,0.0
305,0.0
306,0.0
307,6.98914087863975
308,9.146362825894068E-04
310,0.0
311,0.0
312,0.0
313,18003.906766078
314,0.0
315,0.0
316,6738.64489362872
317,4043186.93617723
369,0.0
370,0.0
412,0.3999592
413,6.647109175492689E-02
414,0.333488108245073
415,39.9367114063814
416,35.906010266714
417,39.9103347613638
418,50.
419,30000.
440,0.3999592
441,44.15
442,26490.
443,0.0
444,6644.11468419797
445,3986468.81051878
447,0.0
448,0.0
450,0.3999592
451,6.502796464893043E-02
452,0.33493123535107
453,39.6932364393359
454,35.7190782736492
455,39.6668597943184
456,50.
457,30000.
458,0.3999592
459,44.15
460,26490.
461,0.0
462,5122.16186246931
463,3073297.11748159
465,0.0
466,0.0
468,4.999490000000000E-02
469,2.888658086952632E-02
470,2.110831913047368E-02
471,42.4550979253477
472,17.94464636422
473,42.2440847652073
474,50.
475,30000.
476,4.999490000000000E-02
477,44.15
478,26490.
479,0.0
650,18003.906766078
682,0.0
309,1.
2,1, 1,21, 0, 2,10.00,20.00,WinterDesignDay
151,35.9051601388094
152,35.7180935251172
153,17.065553182722
154,17.9472980909659
155,17.5816385586089
156,17.666958092049
157,7.050991218958
158,18.0172136242607
159,18.0898882368133
160,6.9677283138296
759,-0.90682413480249
760,-0.891701503526431
761,-2.97194992310444
161,0.0
212,0.0
233,0.0
234,0.0
235,18.0172136242607
236,1.020526499807089E-03
237,0.0
258,0.0
269,0.0
270,0.0
271,18.0898882368133
272,1.018426867805601E-03
273,0.0
294,0.0
305,0.0
306,0.0
307,6.9677283138296
308,9.103698480542479E-04
310,0.0
311,0.0
312,0.0
313,18015.7058693439
314,0.0
315,0.0
316,6739.95742081013
317,4043974.45248608
369,0.0
370,0.0
412,0.3999592
413,6.649016145814687E-02
414,0.333469038541853
415,39.9396842357142
416,35.9081980116731
417,39.9133075906966
418,50.
419,30000.
440,0.3999592
441,44.15
442,26490.
443,0.0
444,6645.52424052485
445,3987314.54431491
447,0.0
448,0.0
450,0.3999592
451,6.504927550909644E-02
452,0.334909924490904
453,39.696850274754
454,35.7218489869882
455,39.6704736297364
456,50.
457,30000.
458,0.3999592
459,44.15
460,26490.
461,0.0
462,5130.34041462055
463,3078204.24877233
465,0.0
466,0.0
468,4.999490000000000E-02
469,2.892737107584170E-02
470,2.106752892415830E-02
471,42.485897527648
472,17.9363101461918
473,42.2748843675076
474,50.
475,30000.
476,4.999490000000000E-02
477,44.15
478,26490.
479,0.0
650,18015.7058693439
682,0.0
309,1.
2,1, 1,21, 0, 2,20.00,30.00,WinterDesignDay
151,35.9073205240864
152,35.7207922979361
153,17.056278274972
154,17.9392011448314
155,17.5799543657769
156,17.6652529088031
157,7.02817483375052
158,18.0163432664521
159,18.088858170901
160,6.94679705646371
759,-0.907447535403062
760,-0.892341143397301
761,-2.97622661722774
161,0.0
212,0.0
233,0.0
234,0.0
235,18.0163432664521
236,1.009899887968063E-03
237,0.0
258,0.0
269,0.0
270,0.0
271,18.088858170901
272,1.007920614827200E-03
273,0.0
294,0.0
305,0.0
306,0.0
307,6.94679705646371
308,9.063441619764652E-04
310,0.0
311,0.0
312,0.0
313,18027.2312123717
314,0.0
315,0.0
316,6741.2555713666
317,4044753.34281996
369,0.0
370,0.0
412,0.3999592
413,6.650901671746533E-02
414,0.333450183282535
415,39.9426212524644
416,35.9103585433866
417,39.9162446074468
418,50.
419,30000.
440,0.3999592
441,44.15
442,26490.
443,0.0
444,6646.90161674424
445,3988140.97004655
447,0.0
448,0.0
450,0.3999592
451,6.507008025066963E-02
452,0.33488911974933
453,39.7003725439556
454,35.7245473825498
455,39.6739958989381
456,50.
457,30000.
458,0.3999592
459,44.15
460,26490.
461,0.0
462,5138.32131891763
463,3082992.79135058
465,0.0
466,0.0
468,4.999490000000000E-02
469,2.896716145011428E-02
470,2.102773854988572E-02
471,42.5159550042999
472,17.9281775824975
473,42.3049418441595
474,50.
475,30000.
476,4.999490000000000E-02
477,44.15
478,26490.
479,0.0
650,18027.2312123717
682,0.0
309,1.
2,1, 1,21, 0, 2,30.00,40.00,WinterDesignDay
151,35.9094538712612
152,35.7234210945488
153,17.0472246623587
154,17.9312998100051
155,17.5782840509185
156,17.6635830215247
157,7.00587148534521
158,18.0154835941646
159,18.0878538612892
160,6.92633426548967
759,-0.90804619913308
760,-0.892952734125778
761,-2.98040196871314
161,0.0
212,0.0
233,0.0
234,0.0
235,18.0154835941646
236,9.998953098731475E-04
237,0.0
258,0.0
269,0.0
270,0.0
271,18.0878538612892
272,9.980295000189493E-04
273,0.0
294,0.0
305,0.0
306,0.0
307,6.92633426548967
308,9.025456133889022E-04
310,0.0
311,0.0
312,0.0
313,18038.4916910571
314,0.0
315,0.0
316,6742.53904086111
317,4045523.42451667
369,0.0
370,0.0
412,0.3999592
413,6.652765485889144E-02
414,0.333431545141109
415,39.9455224451596
416,35.9124920324803
417,39.919145800142
418,50.
419,30000.
440,0.3999592
441,44.15
442,26490.
443,0.0
444,6648.24762984352
445,3988948.57790611
447,0.0
448,0.0
450,0.3999592
451,6.509039290348333E-02
452,0.334868807096517
453,39.7038060969966
454,35.7271758217112
455,39.677429451979
456,50.
457,30000.
458,0.3999592
459,44.15
460,26490.
461,0.0
462,5146.11127487825
463,3087666.76492695
465,0.0
466,0.0
468,4.999490000000000E-02
469,2.900598631332105E-02
470,2.098891368667895E-02
471,42.5452952689054
472,17.9202415283605
473,42.334282108765
474,50.
475,30000.
476,4.999490000000000E-02
477,44.15
478,26490.
479,0.0
650,18038.4916910571
682,0.0
309,1.
2,1, 1,21, 0, 2,40.00,50.00,WinterDesignDay
151,35.911560386645
152,35.7259822187941
153,17.0383851352381
154,17.9235874497864
155,17.5766280144083
156,17.6619475500046
157,6.98406749602168
158,18.0146344954534
159,18.0868744730961
160,6.90632759452906
759,-0.908621407010269
760,-0.89353773932715
761,-2.98447893558492
161,0.0
212,0.0
233,0.0
234,0.0
235,18.0146344954534
236,9.904763330929188E-04
237,0.0
258,0.0
269,0.0
270,0.0
271,18.0868744730961
272,9.887174855290088E-04
273,0.0
294,0.0
305,0.0
306,0.0
307,6.90632759452906
308,8.989613629610862E-04
310,0.0
311,0.0
312,0.0
313,18049.4957508366
314,0.0
315,0.0
316,6743.80782432003
317,4046284.69459202
369,0.0
370,0.0
412,0.3999592
413,6.654607628896581E-02
414,0.333413123711034
415,39.9483880194514
416,35.9145986875807
417,39.9220113744339
418,50.
419,30000.
440,0.3999592
441,44.15
442,26490.
443,0.0
444,6649.56321350187
445,3989737.92810112
447,0.0
448,0.0
450,0.3999592
451,6.511022851461132E-02
452,0.334848971485389
453,39.7071537957026
454,35.7297366078205
455,39.680777150685
456,50.
457,30000.
458,0.3999592
459,44.15
460,26490.
461,0.0
462,5153.71655882278
463,3092229.93529367
465,0.0
466,0.0
468,4.999490000000000E-02
469,2.904387782923456E-02
470,2.095102217076544E-02
471,42.5739416857299
472,17.9124953147418
473,42.3629285255895
474,50.
475,30000.
476,4.999490000000000E-02
477,44.15
478,26490.
479,0.0
650,18049.4957508366
682,0.0
309,1.
2,1, 1,21, 0, 2,50.00,60.00,WinterDesignDay
151,35.9136403482175
152,35.7284779076234
153,17.0297529108567
154,17.9160578478498
155,17.5749866232291
156,17.6603456435
157,6.96274969588707
158,18.0137958629922
159,18.0859192156952
160,6.8867651602077
759,-0.909174371681816
760,-0.894097541695789
761,-2.98846035472026
161,0.0
212,0.0
233,0.0
234,0.0
235,18.0137958629922
236,9.816086613815133E-04
237,0.0
258,0.0
269,0.0
270,0.0
271,18.0859192156952
272,9.799506471643888E-04
273,0.0
294,0.0
305,0.0
306,0.0
307,6.8867651602077
308,8.955792990731178E-04
310,0.0
311,0.0
312,0.0
313,18060.2514736606
314,0.0
315,0.0
316,6745.06208107322
317,4047037.24864393
369,0.0
370,0.0
412,0.3999592
413,6.656428323990754E-02
414,0.333394916760092
415,39.9512183484888
416,35.9166787865341
417,39.9248417034713
418,50.
419,30000.
440,0.3999592
441,44.15
442,26490.
443,0.0
444,6650.84928293551
445,3990509.5697613
447,0.0
448,0.0
450,0.3999592
451,6.512960178907957E-02
452,0.33482959821092
453,39.7104184230129
454,35.7322319763832
455,39.6840417779954
456,50.
457,30000.
458,0.3999592
459,44.15
460,26490.
461,0.0
462,5161.14306988879
463,3096685.84193328
465,0.0
466,0.0
468,4.999490000000000E-02
469,2.908086623631193E-02
470,2.091403376368807E-02
471,42.6019162365759
472,17.904932695026
473,42.3909030764355
474,50.
475,30000.
476,4.999490000000000E-02
477,44.15
478,26490.
479,0.0
650,18060.2514736606
682,0.0
309,1.
2,1, 1,21, 0, 3, 0.00,10.00,WinterDesignDay
151,35.9156940530473
152,35.7309103041053
153,17.0213215891252
154,17.9087051626919
155,17.5733602051007
156,17.6587764735399
157,6.94190539131081
158,18.0129676119804
159,18.0849873376886
160,6.86763551253157
759,-0.909706236600669
760,-0.8946334458911
761,-2.99234894933831
161,0.0
212,0.0
233,0.0
234,0.0
235,18.0129676119804
236,9.732600091636127E-04
237,0.0
258,0.0
269,0.0
270,0.0
271,18.0849873376886
272,9.716970501581207E-04
273,0.0
294,0.0
305,0.0
306,0.0
307,6.86763551253157
308,8.923879964060598E-04
310,0.0
311,0.0
312,0.0
313,18070.7665777762
314,0.0
315,0.0
316,6746.30191421768
317,4047781.1485306
369,0.0
370,0.0
412,0.3999592
413,6.658227743876750E-02
414,0.333376922561233
415,39.9540137900259
416,35.9187326254275
417,39.9276371450084
418,50.
419,30000.
440,0.3999592
441,44.15
442,26490.
443,0.0
444,6652.10666339804
445,3991263.99803882
447,0.0
448,0.0
450,0.3999592
451,6.514852631421028E-02
452,0.33481067368579
453,39.7136026143494
454,35.7346640691979
455,39.6872259693318
456,50.
457,30000.
458,0.3999592
459,44.15
460,26490.
461,0.0
462,5168.39636944498
463,3101037.82166699
465,0.0
466,0.0
468,4.999490000000000E-02
469,2.911698004641125E-02
470,2.087791995358875E-02
471,42.6292396636641
472,17.8975477992998
473,42.4182265035237
474,50.
475,30000.
476,4.999490000000000E-02
477,44.15
478,26490.
479,0.0
650,18070.7665777762
682,0.0
309,1.
2,1, 1,21, 0, 3,10.00,20.00,WinterDesignDay
151,35.9177217771772
152,35.7332814544448
153,17.013085114188
154,17.9015238882095
155,17.5717490425683
156,17.6572392314289
157,6.92152233646086
158,18.0121496630182
159,18.0840781141623
160,6.84892760657708
759,-0.910218078864571
760,-0.895146683468837
761,-2.99614733593178
161,0.0
212,0.0
233,0.0
234,0.0
235,18.0121496630182
236,9.653999834249174E-04
237,0.0
258,0.0
269,0.0
270,0.0
271,18.0840781141623
272,9.639266322679751E-04
273,0.0
294,0.0
305,0.0
306,0.0
307,6.84892760657708
308,8.893766769031537E-04
310,0.0
311,0.0
312,0.0
313,18081.0483899289
314,0.0
315,0.0
316,6747.52733522445
317,4048516.40113467
369,0.0
370,0.0
412,0.3999592
413,6.660005964905050E-02
414,0.333359140350949
415,39.9567746267319
416,35.9207604800686
417,39.9303979817144
418,50.
419,30000.
440,0.3999592
441,44.15
442,26490.
443,0.0
444,6653.33612255285
445,3992001.67353171
447,0.0
448,0.0
450,0.3999592
451,6.516701487009786E-02
452,0.334792185129902
453,39.7167088743714
454,35.7370349317483
455,39.6903322293538
456,50.
457,30000.
458,0.3999592
459,44.15
460,26490.
461,0.0
462,5175.4817152828
463,3105289.02916968
465,0.0
466,0.0
468,4.999490000000000E-02
469,2.915224621733260E-02
470,2.084265378266741E-02
471,42.6559315936985
472,17.8903350948039
473,42.4449184335581
474,50.
475,30000.
476,4.999490000000000E-02
477,44.15
478,26490.
479,0.0
650,18081.0483899289
682,0.0
309,1.
2,1, 1,21, 0, 3,20.00,30.00,WinterDesignDay
151,35.9197237811809
152,35.7355933226888
153,17.0050377409948
154,17.8945088195302
155,17.5701533769505
156,17.6557331300891
157,6.90158870754518
158,18.0113419266881
159,18.0831908424126
160,6.83063077685159
759,-0.910710914662693
760,-0.895638418007503
761,-2.99985803075629
161,0.0
212,0.0
233,0.0
234,0.0
235,18.0113419266881
236,9.579999725665924E-04
237,0.0
258,0.0
269,0.0
270,0.0
271,18.0831908424126
272,9.566110937707947E-04
273,0.0
294,0.0
305,0.0
306,0.0
307,6.83063077685159
308,8.865351729647863E-04
310,0.0
311,0.0
312,0.0
313,18091.1038518685
314,0.0
315,0.0
316,6748.7383501463
317,4049243.01008778
369,0.0
370,0.0
412,0.3999592
413,6.661763054203140E-02
414,0.333341569457969
415,39.9595011232726
416,35.9227626115028
417,39.933124478255
418,50.
419,30000.
440,0.3999592
441,44.15
442,26490.
443,0.0
444,6654.53841751697
445,3992723.05051018
447,0.0
448,0.0
450,0.3999592
451,6.518507993056623E-02
452,0.334774120069434
453,39.7197396194589
454,35.7393465275471
455,39.6933629744413
456,50.
457,30000.
458,0.3999592
459,44.15
460,26490.
461,0.0
462,5182.40409141304
463,3109442.45484783
465,0.0
466,0.0
468,4.999490000000000E-02
469,2.918669030333467E-02
470,2.080820969666533E-02
471,42.6820106461082
472,17.8832893515934
473,42.4709974859678
474,50.
475,30000.
476,4.999490000000000E-02
477,44.15
478,26490.
479,0.0
650,18091.1038518685
682,0.0
309,1.
2,1, 1,21, 0, 3,30.00,40.00,WinterDesignDay
151,35.9217003302427
152,35.7378478017803
153,16.9971740062241
154,17.8876550233694
155,17.5685734163031
156,17.6542574055424
157,6.88209307946358
158,18.0105443051536
159,18.0823248447904
160,6.81273471474975
759,-0.911185703956772
760,-0.896109749136064
761,-3.00348345575953
161,0.0
212,0.0
233,0.0
234,0.0
235,18.0105443051536
236,9.510330418100554E-04
237,0.0
258,0.0
269,0.0
270,0.0
271,18.0823248447904
272,9.497237939426185E-04
273,0.0
294,0.0
305,0.0
306,0.0
307,6.81273471474975
308,8.838538927481793E-04
310,0.0
311,0.0
312,0.0
313,18100.9395577961
314,0.0
315,0.0
316,6749.93501324114
317,4049961.00794468
369,0.0
370,0.0
412,0.3999592
413,6.663499128295954E-02
414,0.33332420871704
415,39.9621935777063
416,35.9247392853343
417,39.9358169326887
418,50.
419,30000.
440,0.3999592
441,44.15
442,26490.
443,0.0
444,6655.71430073518
445,3993428.58044111
447,0.0
448,0.0
450,0.3999592
451,6.520273374882628E-02
452,0.334756466251174
453,39.7226971919581
454,35.7416007488678
455,39.6963205469405
456,50.
457,30000.
458,0.3999592
459,44.15
460,26490.
461,0.0
462,5189.16823400764
463,3113500.94040458
465,0.0
466,0.0
468,4.999490000000000E-02
469,2.922033658631628E-02
470,2.077456341368372E-02
471,42.7074945273618
472,17.8764056127153
473,42.4964813672213
474,50.
475,30000.
476,4.999490000000000E-02
477,44.15
478,26490.
479,0.0
650,18100.9395577961
682,0.0
309,1.