Program Version,EnergyPlus, Version 8.2.1-27b6d52898, YMD=2014.10.07 20:26
1,5,Environment Title[],Latitude[deg],Longitude[deg],Time Zone[],Elevation[m]
2,6,Day of Simulation[],Month[],Day of Month[],DST Indicator[1=yes 0=no],Hour[],StartMinute[],EndMinute[],DayType
3,3,Cumulative Day of Simulation[],Month[],Day of Month[],DST Indicator[1=yes 0=no],DayType  ! When Daily Report Variables Requested
4,2,Cumulative Days of Simulation[],Month[]  ! When Monthly Report Variables Requested
5,1,Cumulative Days of Simulation[] ! When Run Period Report Variables Requested
6,1,Environment,Site Outdoor Air Drybulb Temperature [C] !TimeStep
7,1,Environment,Site Outdoor Air Wetbulb Temperature [C] !TimeStep
153,1,ZN001:FLR001,Surface Inside Face Temperature [C] !TimeStep
154,1,ZN001:FLR001,Surface Internal Source Location Temperature [C] !TimeStep
155,1,ZN002:FLR001,Surface Internal Source Location Temperature [C] !TimeStep
156,1,ZN003:FLR001,Surface Internal Source Location Temperature [C] !TimeStep
157,1,WEST ZONE,Zone Mean Radiant Temperature [C] !TimeStep
158,1,EAST ZONE,Zone Mean Radiant Temperature [C] !TimeStep
159,1,NORTH ZONE,Zone Mean Radiant Temperature [C] !TimeStep
160,1,WEST ZONE,Zone Mean Air Temperature [C] !TimeStep
161,1,EAST ZONE,Zone Mean Air Temperature [C] !TimeStep
162,1,NORTH ZONE,Zone Mean Air Temperature [C] !TimeStep
163,1,WEST ZONE,Zone Air System Sensible Heating Energy [J] !TimeStep
214,1,WEST ZONE,Zone Air System Sensible Cooling Energy [J] !TimeStep
235,1,WEST ZONE,Zone Air System Sensible Heating Rate [W] !TimeStep
236,1,WEST ZONE,Zone Air System Sensible Cooling Rate [W] !TimeStep
237,1,WEST ZONE,Zone Air Temperature [C] !TimeStep
238,1,WEST ZONE,Zone Air Humidity Ratio [] !TimeStep
239,1,EAST ZONE,Zone Air System Sensible Heating Energy [J] !TimeStep
260,1,EAST ZONE,Zone Air System Sensible Cooling Energy [J] !TimeStep
271,1,EAST ZONE,Zone Air System Sensible Heating Rate [W] !TimeStep
272,1,EAST ZONE,Zone Air System Sensible Cooling Rate [W] !TimeStep
273,1,EAST ZONE,Zone Air Temperature [C] !TimeStep
274,1,EAST ZONE,Zone Air Humidity Ratio [] !TimeStep
275,1,NORTH ZONE,Zone Air System Sensible Heating Energy [J] !TimeStep
296,1,NORTH ZONE,Zone Air System Sensible Cooling Energy [J] !TimeStep
307,1,NORTH ZONE,Zone Air System Sensible Heating Rate [W] !TimeStep
308,1,NORTH ZONE,Zone Air System Sensible Cooling Rate [W] !TimeStep
309,1,NORTH ZONE,Zone Air Temperature [C] !TimeStep
310,1,NORTH ZONE,Zone Air Humidity Ratio [] !TimeStep
311,1,SimHVAC,HVAC System Solver Iteration Count [] !TimeStep
312,1,CHILLED WATER LOOP,Plant Supply Side Cooling Demand Rate [W] !TimeStep
313,1,CHILLED WATER LOOP,Plant Supply Side Heating Demand Rate [W] !TimeStep
314,1,HOT WATER LOOP,Plant Supply Side Cooling Demand Rate [W] !TimeStep
315,1,HOT WATER LOOP,Plant Supply Side Heating Demand Rate [W] !TimeStep
316,1,CHILLED WATER CONDENSER LOOP,Plant Supply Side Cooling Demand Rate [W] !TimeStep
317,1,CHILLED WATER CONDENSER LOOP,Plant Supply Side Heating Demand Rate [W] !TimeStep
318,1,WEST ZONE RADIANT FLOOR,Zone Radiant HVAC Heating Energy [J] !TimeStep
370,1,WEST ZONE RADIANT FLOOR,Zone Radiant HVAC Cooling Energy [J] !TimeStep
412,1,WEST ZONE RADIANT FLOOR,Zone Radiant HVAC Mass Flow Rate [kg/s] !TimeStep
413,1,WEST ZONE RADIANT FLOOR,Zone Radiant HVAC Inlet Temperature [C] !TimeStep
414,1,WEST ZONE RADIANT FLOOR,Zone Radiant HVAC Outlet Temperature [C] !TimeStep
415,1,EAST ZONE RADIANT FLOOR,Zone Radiant HVAC Heating Energy [J] !TimeStep
417,1,EAST ZONE RADIANT FLOOR,Zone Radiant HVAC Cooling Energy [J] !TimeStep
419,1,EAST ZONE RADIANT FLOOR,Zone Radiant HVAC Mass Flow Rate [kg/s] !TimeStep
420,1,EAST ZONE RADIANT FLOOR,Zone Radiant HVAC Inlet Temperature [C] !TimeStep
421,1,EAST ZONE RADIANT FLOOR,Zone Radiant HVAC Outlet Temperature [C] !TimeStep
422,1,NORTH ZONE RADIANT FLOOR,Zone Radiant HVAC Heating Energy [J] !TimeStep
424,1,NORTH ZONE RADIANT FLOOR,Zone Radiant HVAC Cooling Energy [J] !TimeStep
426,1,NORTH ZONE RADIANT FLOOR,Zone Radiant HVAC Mass Flow Rate [kg/s] !TimeStep
427,1,NORTH ZONE RADIANT FLOOR,Zone Radiant HVAC Inlet Temperature [C] !TimeStep
428,1,NORTH ZONE RADIANT FLOOR,Zone Radiant HVAC Outlet Temperature [C] !TimeStep
609,1,PURCHASED HEATING,District Heating Rate [W] !TimeStep
641,1,PURCHASED COOLING,District Cooling Rate [W] !TimeStep
728,1,WEST ZONE,Zone Thermal Comfort Fanger Model PMV [] !TimeStep
729,1,EAST ZONE,Zone Thermal Comfort Fanger Model PMV [] !TimeStep
730,1,NORTH ZONE,Zone Thermal Comfort Fanger Model PMV [] !TimeStep
End of Data Dictionary
1,CHICAGO ANN HTG 99% CONDNS DB,  41.98, -87.92,  -6.00, 201.00
2,1, 1,21, 0, 1, 0.00,10.00,WinterDesignDay
6,-17.3
7,-17.3
153,25.0625876967282
154,26.1789177157816
155,39.4022256899359
156,37.1336102791444
157,13.069839148179
158,21.3221451281314
159,20.3314544813158
160,12.8431794857366
161,21.6294503094714
162,20.4716906483294
728,-1.84197184943262
729,-0.180725840404991
730,-0.395146863264656
163,0.0
214,0.0
235,0.0
236,0.0
237,12.8431794857366
238,1.065804109257734E-03
239,0.0
260,0.0
271,0.0
272,0.0
273,21.6294503094714
274,1.277059495952321E-03
275,0.0
296,0.0
307,0.0
308,0.0
309,20.4716906483294
310,1.196547125271170E-03
312,0.0
313,0.0
314,0.0
315,18922.871288387
316,0.0
317,0.0
318,2700431.65938589
370,0.0
412,3.177748754363988E-02
413,60.
414,26.1571506215094
415,4067652.5304725
417,0.0
419,7.865600000000000E-02
420,60.
421,39.4048349058665
422,5644714.97441195
424,0.0
426,9.832000000000000E-02
427,60.
428,37.1359355920526
609,18922.871288387
641,0.0
311,1.
2,1, 1,21, 0, 1,10.00,20.00,WinterDesignDay
6,-17.3
7,-17.3
153,25.0622515314806
154,26.1804120545865
155,39.3839428723799
156,37.1131896381594
157,13.0502027009946
158,21.2893296248447
159,20.2984760286317
160,12.8262101751657
161,21.5992944721238
162,20.4410403294239
728,-1.84595137821561
729,-0.187874575793753
730,-0.402172870530585
163,0.0
214,0.0
235,0.0
236,0.0
237,12.8262101751657
238,1.052756376242850E-03
239,0.0
260,0.0
271,0.0
272,0.0
273,21.5992944721238
274,1.251103611858392E-03
275,0.0
296,0.0
307,0.0
308,0.0
309,20.4410403294239
310,1.175444397812034E-03
312,0.0
313,0.0
314,0.0
315,18944.955222822
316,0.0
317,0.0
318,2704700.07013341
370,0.0
412,3.182925212799528E-02
413,60.
414,26.1587835918792
415,4071269.06580508
417,0.0
419,7.865600000000000E-02
420,60.
421,39.3865238181604
422,5649763.7328848
424,0.0
426,9.832000000000000E-02
427,60.
428,37.1154854649113
609,18944.955222822
641,0.0
311,1.
2,1, 1,21, 0, 1,20.00,30.00,WinterDesignDay
6,-17.3
7,-17.3
153,25.0619222707507
154,26.181872074221
155,39.3660917676569
156,37.0932749449322
157,13.0309983164409
158,21.2571317076034
159,20.2661461774077
160,12.8096241804955
161,21.56974107548
162,20.411021629502
728,-1.84982501797161
729,-0.194845767952895
730,-0.409026292251876
163,0.0
214,0.0
235,0.0
236,0.0
237,12.8096241804955
238,1.040459977076224E-03
239,0.0
260,0.0
271,0.0
272,0.0
273,21.56974107548
274,1.226688821485993E-03
275,0.0
296,0.0
307,0.0
308,0.0
309,20.411021629502
310,1.155589577010401E-03
312,0.0
313,0.0
314,0.0
315,18966.5058380249
316,0.0
317,0.0
318,2708873.19864918
370,0.0
412,3.187986521233399E-02
413,60.
414,26.1603792531091
415,4074800.15998027
417,0.0
419,7.865600000000000E-02
420,60.
421,39.3686453324844
422,5654687.35924875
424,0.0
426,9.832000000000000E-02
427,60.
428,37.0955421886225
609,18966.5058380249
641,0.0
311,1.
2,1, 1,21, 0, 1,30.00,40.00,WinterDesignDay
6,-17.3
7,-17.3
153,25.0615997289718
154,26.1832988650564
155,39.3486523281437
156,37.0738426332022
157,13.0122127210863
158,21.2255345066927
159,20.2344468470996
160,12.7934099515574
161,21.5407715955263
162,20.3816156068414
728,-1.85359674833923
729,-0.201646351714818
730,-0.415713571019991
163,0.0
214,0.0
235,0.0
236,0.0
237,12.7934099515574
238,1.028871563535410E-03
239,0.0
260,0.0
271,0.0
272,0.0
273,21.5407715955263
274,1.203723321177659E-03
275,0.0
296,0.0
307,0.0
308,0.0
309,20.3816156068414
310,1.136908635595042E-03
312,0.0
313,0.0
314,0.0
315,18987.5461694555
316,0.0
317,0.0
318,2712953.94369221
370,0.0
412,3.192936169209708E-02
413,60.
414,26.1619387811441
415,4078249.78319226
417,0.0
419,7.865600000000000E-02
420,60.
421,39.3511793471203
422,5659491.68463617
424,0.0
426,9.832000000000000E-02
427,60.
428,37.0760821440334
609,18987.5461694555
641,0.0
311,1.
2,1, 1,21, 0, 1,40.00,50.00,WinterDesignDay
6,-17.3
7,-17.3
153,25.0612837266537
154,26.1846934674205
155,39.3316062386877
156,37.0548711010715
157,12.9938332333811
158,21.1945220045314
159,20.2033608556159
160,12.7775564251839
161,21.5123685820635
162,20.3528043806964
728,-1.85727035206227
729,-0.208282861038183
730,-0.422240785004611
163,0.0
214,0.0
235,0.0
236,0.0
237,12.7775564251839
238,1.017950296022033E-03
239,0.0
260,0.0
271,0.0
272,0.0
273,21.5123685820635
274,1.182120804466117E-03
275,0.0
296,0.0
307,0.0
308,0.0
309,20.3528043806964
310,1.119331958990690E-03
312,0.0
313,0.0
314,0.0
315,19008.0974693637
316,0.0
317,0.0
318,2716945.08194238
370,0.0
412,3.197777499646044E-02
413,60.
414,26.1634632989736
415,4081621.56240521
417,0.0
419,7.865600000000000E-02
420,60.
421,39.3341074981776
422,5664182.05396462
424,0.0
426,9.832000000000000E-02
427,60.
428,37.0570836814168
609,19008.0974693637
641,0.0
311,1.
2,1, 1,21, 0, 1,50.00,60.00,WinterDesignDay
6,-17.3
7,-17.3
153,25.0609740901893
154,26.1860568753528
155,39.3149367226539
156,37.0363405018032
157,12.9758477215716
158,21.1640789604784
159,20.1728718430405
160,12.762052990777
161,21.4845155568197
162,20.3245710333152
728,-1.86084942804316
729,-0.214761459947083
730,-0.42861367612134
163,0.0
214,0.0
235,0.0
236,0.0
237,12.762052990777
238,1.007657697656948E-03
239,0.0
260,0.0
271,0.0
272,0.0
273,21.4845155568197
274,1.161800130096401E-03
275,0.0
296,0.0
307,0.0
308,0.0
309,20.3245710333152
310,1.102794080220742E-03
312,0.0
313,0.0
314,0.0
315,19028.179393308
316,0.0
317,0.0
318,2720849.27590653
370,0.0
412,3.202513718357358E-02
413,60.
414,26.1649538804599
415,4084918.81979158
417,0.0
419,7.865600000000000E-02
420,60.
421,39.3174129649741
422,5668763.37773508
424,0.0
426,9.832000000000000E-02
427,60.
428,37.0385269106611
609,19028.179393308
641,0.0
311,1.
2,1, 1,21, 0, 2, 0.00,10.00,WinterDesignDay
6,-17.3
7,-17.3
153,25.0608879522295
154,26.1875253625026
155,39.2986611573268
156,37.0182698774434
157,12.958421994161
158,21.1342934884166
159,20.1430695324602
160,12.7468894604773
161,21.4571969238606
162,20.2968995235988
728,-1.864322481461
729,-0.221078742184455
730,-0.434828283719559
163,0.0
214,0.0
235,0.0
236,0.0
237,12.7468894604773
238,9.979575169334271E-04
239,0.0
260,0.0
271,0.0
272,0.0
273,21.4571969238606
274,1.142685010389035E-03
275,0.0
296,0.0
307,0.0
308,0.0
309,20.2968995235988
310,1.087233430946789E-03
312,0.0
313,0.0
314,0.0
315,19047.8101649461
316,0.0
317,0.0
318,2724669.08090641
370,0.0
412,3.207147902467854E-02
413,60.
414,26.1664115537051
415,4088144.60653006
417,0.0
419,7.865600000000000E-02
420,60.
421,39.3010802989119
422,5673240.1779082
424,0.0
426,9.832000000000000E-02
427,60.
428,37.0203935154474
609,19047.8101649461
641,0.0
311,1.
2,1, 1,21, 0, 2,10.00,20.00,WinterDesignDay
6,-17.3
7,-17.3
153,25.0606059471145
154,26.1888378947448
155,39.2827245134951
156,37.0005955973644
157,12.9412615771629
158,21.105000107405
159,20.1137826723135
160,12.7321139124993
161,21.4304363221459
162,20.2698134240592
728,-1.86771660932749
729,-0.22725384644425
730,-0.440903694817204
163,0.0
214,0.0
235,0.0
236,0.0
237,12.7321139124993
238,9.888155974697936E-04
239,0.0
260,0.0
271,0.0
272,0.0
273,21.4304363221459
274,1.124703717464786E-03
275,0.0
296,0.0
307,0.0
308,0.0
309,20.2698134240592
310,1.072592106648086E-03
312,0.0
313,0.0
314,0.0
315,19066.8971297535
316,0.0
317,0.0
318,2728253.59702451
370,0.0
412,3.211502711118353E-02
413,60.
414,26.167839629743
415,4091297.08686041
417,0.0
419,7.865600000000000E-02
420,60.
421,39.2851187947339
422,5677609.99061945
424,0.0
426,9.832000000000000E-02
427,60.
428,37.0026934757229
609,19066.8971297535
641,0.0
311,1.
2,1, 1,21, 0, 2,20.00,30.00,WinterDesignDay
6,-17.3
7,-17.3
153,25.0603163643183
154,26.1901104777472
155,39.2671180271527
156,36.9833070169999
157,12.9244436745156
158,21.0762227045217
159,20.0850360742449
160,12.7176732045175
161,21.4041947375827
162,20.2432739884401
728,-1.87102134013994
729,-0.233284569184848
730,-0.446837179009794
163,0.0
214,0.0
235,0.0
236,0.0
237,12.7176732045175
238,9.801997575149544E-04
239,0.0
260,0.0
271,0.0
272,0.0
273,21.4041947375827
274,1.107788809985458E-03
275,0.0
296,0.0
307,0.0
308,0.0
309,20.2432739884401
310,1.058815648155560E-03
312,0.0
313,0.0
314,0.0
315,19085.540215871
316,0.0
317,0.0
318,2731875.77652927
370,0.0
412,3.215898745097575E-02
413,60.
414,26.1692311092663
415,4094384.01061212
417,0.0
419,7.865600000000000E-02
420,60.
421,39.2694892138336
422,5681884.15607746
424,0.0
426,9.832000000000000E-02
427,60.
428,36.9853808576784
609,19085.540215871
641,0.0
311,1.
2,1, 1,21, 0, 2,30.00,40.00,WinterDesignDay
6,-17.3
7,-17.3
153,25.0600297547291
154,26.1913531485382
155,39.2518321054604
156,36.9663927843614
157,12.9079675591863
158,21.0479545197856
159,20.0568223039509
160,12.7035241344579
161,21.3784349561983
162,20.2172429875359
728,-1.87424351978164
729,-0.239177955615144
730,-0.452635379555481
163,0.0
214,0.0
235,0.0
236,0.0
237,12.7035241344579
238,9.720796759463465E-04
239,0.0
260,0.0
271,0.0
272,0.0
273,21.3784349561983
274,1.091876876063672E-03
275,0.0
296,0.0
307,0.0
308,0.0
309,20.2172429875359
310,1.045852836062753E-03
312,0.0
313,0.0
314,0.0
315,19103.8203518608
316,0.0
317,0.0
318,2735426.08467524
370,0.0
412,3.220207603025368E-02
413,60.
414,26.1705918189964
415,4097407.28828025
417,0.0
419,7.865600000000000E-02
420,60.
421,39.2541818830737
422,5686065.48202948
424,0.0
426,9.832000000000000E-02
427,60.
428,36.9684442884608
609,19103.8203518608
641,0.0
311,1.
2,1, 1,21, 0, 2,40.00,50.00,WinterDesignDay
6,-17.3
7,-17.3
153,25.0597477109595
154,26.1925690615028
155,39.2368553329571
156,36.9498393543194
157,12.8918259156458
158,21.0201848847195
159,20.0291297264205
160,12.6896599724458
161,21.3531431464338
162,20.1917052293665
728,-1.87738942182596
729,-0.244941075348606
730,-0.458305149452235
163,0.0
214,0.0
235,0.0
236,0.0
237,12.6896599724458
238,9.644267838759898E-04
239,0.0
260,0.0
271,0.0
272,0.0
273,21.3531431464338
274,1.076908290502497E-03
275,0.0
296,0.0
307,0.0
308,0.0
309,20.1917052293665
310,1.033655496494750E-03
312,0.0
313,0.0
314,0.0
315,19121.7370947876
316,0.0
317,0.0
318,2738914.92769306
370,0.0
412,3.224441703536780E-02
413,60.
414,26.1719237519661
415,4100369.38628478
417,0.0
419,7.865600000000000E-02
420,60.
421,39.2391843145814
422,5690157.56826648
424,0.0
426,9.832000000000000E-02
427,60.
428,36.9518691870235
609,19121.7370947876
641,0.0
311,1.
2,1, 1,21, 0, 2,50.00,60.00,WinterDesignDay
6,-17.3
7,-17.3
153,25.0594714029429
154,26.1937598748047
155,39.2221772673953
156,36.9336342051058
157,12.8760110618091
158,20.9929030927852
159,20.001946684734
160,12.6760848526999
161,21.3283142949496
162,20.1666550913061
728,-1.88046138890694
729,-0.250578395520237
730,-0.463850794505702
163,0.0
214,0.0
235,0.0
236,0.0
237,12.6760848526999
238,9.572141625035160E-04
239,0.0
260,0.0
271,0.0
272,0.0
273,21.3283142949496
274,1.062826986591791E-03
275,0.0
296,0.0
307,0.0
308,0.0
309,20.1666550913061
310,1.022178318418608E-03
312,0.0
313,0.0
314,0.0
315,19139.2972134143
316,0.0
317,0.0
318,2742337.67499188
370,0.0
412,3.228595674839314E-02
413,60.
414,26.1732279507529
415,4103272.44687162
417,0.0
419,7.865600000000000E-02
420,60.
421,39.2244856618287
422,5694163.61241447
424,0.0
426,9.832000000000000E-02
427,60.
428,36.9356426012993
609,19139.2972134143
641,0.0
311,1.
2,1, 1,21, 0, 3, 0.00,10.00,WinterDesignDay
6,-17.3
7,-17.3
153,25.0592005908983
154,26.1949258145006
155,39.207788326949
156,36.9177658263601
157,12.8605149058556
158,20.9660986651723
159,19.9752618227182
160,12.6627961192986
161,21.3039402916812
162,20.1420843791982
728,-1.88346057936929
729,-0.256093307390774
730,-0.469275480062145
163,0.0
214,0.0
235,0.0
236,0.0
237,12.6627961192986
238,9.504164473273444E-04
239,0.0
260,0.0
271,0.0
272,0.0
273,21.3039402916812
274,1.049580242213352E-03
275,0.0
296,0.0
307,0.0
308,0.0
309,20.1420843791982
310,1.011378682342496E-03
312,0.0
313,0.0
314,0.0
315,19156.5050595505
316,0.0
317,0.0
318,2745692.00564375
370,0.0
412,3.232666806365431E-02
413,60.
414,26.1745048494465
415,4106118.33426419
417,0.0
419,7.865600000000000E-02
420,60.
421,39.2100764859588
422,5698086.42743878
424,0.0
426,9.832000000000000E-02
427,60.
428,36.9197531372993
609,19156.5050595505
641,0.0
311,1.
2,1, 1,21, 0, 3,10.00,20.00,WinterDesignDay
6,-17.3
7,-17.3
153,25.0589348436162
154,26.1960671961078
155,39.1936794680485
156,36.9022233824209
157,12.8453292073823
158,20.9397612235834
159,19.9490639359321
160,12.6497851132634
161,21.280009666301
162,20.1179814334175
728,-1.88638883745791
729,-0.261489407463407
730,-0.474582538902754
163,0.0
214,0.0
235,0.0
236,0.0
237,12.6497851132634
238,9.440097381736081E-04
239,0.0
260,0.0
271,0.0
272,0.0
273,21.280009666301
274,1.037118479222306E-03
275,0.0
296,0.0
307,0.0
308,0.0
309,20.1179814334175
310,1.001216499608206E-03
312,0.0
313,0.0
314,0.0
315,19173.3663951899
316,0.0
317,0.0
318,2748978.37064186
370,0.0
412,3.236655666214367E-02
413,60.
414,26.1757550367994
415,4108908.80395907
417,0.0
419,7.865600000000000E-02
420,60.
421,39.1959478986161
422,5701928.64975721
424,0.0
426,9.832000000000000E-02
427,60.
428,36.9041901161447
609,19173.3663951899
641,0.0
311,1.
2,1, 1,21, 0, 3,20.00,30.00,WinterDesignDay
6,-17.3
7,-17.3
153,25.0586739966993
154,26.1971847142154
155,39.1798421227647
156,36.8869966163464
157,12.8304458496962
158,20.9138805586131
159,19.9233420164689
160,12.63704280928
161,21.2565108732536
162,20.0943342576893
728,-1.88924858934985
729,-0.266770526114844
730,-0.479775567681369
163,0.0
214,0.0
235,0.0
236,0.0
237,12.63704280928
238,9.379715144595218E-04
239,0.0
260,0.0
271,0.0
272,0.0
273,21.2565108732536
274,1.025395074999078E-03
275,0.0
296,0.0
307,0.0
308,0.0
309,20.0943342576893
310,9.916540613930003E-04
312,0.0
313,0.0
314,0.0
315,19189.8892314467
316,0.0
317,0.0
318,2752198.54584217
370,0.0
412,3.240564401248236E-02
413,60.
414,26.1769792899955
415,4111645.5473198
417,0.0
419,7.865600000000000E-02
420,60.
421,39.182091336161
422,5705692.80769816
424,0.0
426,9.832000000000000E-02
427,60.
428,36.8889432967759
609,19189.8892314467
641,0.0
311,1.
2,1, 1,21, 0, 3,30.00,40.00,WinterDesignDay
6,-17.3
7,-17.3
153,25.0584180289147
154,26.1982791530641
155,39.1662682256974
156,36.8720758638339
157,12.8158569632959
158,20.8884467431812
159,19.8980853630398
160,12.6245618913534
161,21.233433586245
162,20.0711320083347
728,-1.89204223256467
729,-0.271940375699252
730,-0.484858090108448
163,0.0
214,0.0
235,0.0
236,0.0
237,12.6245618913534
238,9.322805553206344E-04
239,0.0
260,0.0
271,0.0
272,0.0
273,21.233433586245
274,1.014366185332629E-03
275,0.0
296,0.0
307,0.0
308,0.0
309,20.0711320083347
310,9.826558967421185E-04
312,0.0
313,0.0
314,0.0
315,19206.0826843161
316,0.0
317,0.0
318,2755354.27754588
370,0.0
412,3.244395124648194E-02
413,60.
414,26.1781783869858
415,4114330.16822063
417,0.0
419,7.865600000000000E-02
420,60.
421,39.1684986779254
422,5709381.29985616
424,0.0
426,9.832000000000000E-02
427,60.
428,36.8740029636234
609,19206.0826843161
641,0.0
311,1.
2,1, 1,21, 0, 3,40.00,50.00,WinterDesignDay
6,-17.3
7,-17.3
153,25.0581668872947
154,26.1993511929235
155,39.1529501963805
156,36.8574520355946
157,12.8015549275701
158,20.8634501686058
159,19.8732836223765
160,12.6123359650003
161,21.2107682560575
162,20.04836469464
728,-1.89477191643217
729,-0.277002416110474
730,-0.489833399969668
163,0.0
214,0.0
235,0.0
236,0.0
237,12.6123359650003
238,9.269168643559771E-04
239,0.0
260,0.0
271,0.0
272,0.0
273,21.2107682560575
274,1.003990577975107E-03
275,0.0
296,0.0
307,0.0
308,0.0
309,20.04836469464
310,9.741886391055292E-04
312,0.0
313,0.0
314,0.0
315,19221.9558382516
316,0.0
317,0.0
318,2758447.05094181
370,0.0
412,3.248149635419293E-02
413,60.
414,26.1793530253804
415,4116964.17075716
417,0.0
419,7.865600000000000E-02
420,60.
421,39.1551623084367
422,5712996.37954629
424,0.0
426,9.832000000000000E-02
427,60.
428,36.859359989576
609,19221.9558382516
641,0.0
311,1.
2,1, 1,21, 0, 3,50.00,60.00,WinterDesignDay
6,-17.3
7,-17.3
153,25.0579204604501
154,26.200401423271
155,39.1398808842296
156,36.8431165602625
157,12.7875323487151
158,20.838881525786
159,19.8489267719779
160,12.6003586606003
161,21.1885055824859
162,20.0260226386242
728,-1.89743963079647
729,-0.281959908955771
730,-0.494704599004055
163,0.0
214,0.0
235,0.0
236,0.0
237,12.6003586606003
238,9.218615987548585E-04
239,0.0
260,0.0
271,0.0
272,0.0
273,21.1885055824859
274,9.942294762514412E-04
275,0.0
296,0.0
307,0.0
308,0.0
309,20.0260226386242
310,9.662209008936877E-04
312,0.0
313,0.0
314,0.0
315,19237.5173906812
316,0.0
317,0.0
318,2761478.31006041
370,0.0
412,3.251829679742068E-02
413,60.
414,26.180503848147
415,4119548.96933389
417,0.0
419,7.865600000000000E-02
420,60.
421,39.1420750663421
422,5716540.16621555
424,0.0
426,9.832000000000000E-02
427,60.
428,36.8450057897588
609,19237.5173906812
641,0.0
311,1.
2,1, 1,21, 0, 4, 0.00,10.00,WinterDesignDay
6,-17.3
7,-17.3
153,25.0576786223577
154,26.201430407418
155,39.1270535168428
156,36.8290613257472
157,12.7737820544338
158,20.8147317822668
159,19.8250050940845
160,12.588623519277
161,21.1666364353466
162,20.0040963410333
728,-1.90004730482101
729,-0.286815980875572
730,-0.499474660849018
163,0.0
214,0.0
235,0.0
236,0.0
237,12.588623519277
238,9.170970025534242E-04
239,0.0
260,0.0
271,0.0
272,0.0
273,21.1666364353466
274,9.850464121151463E-04
275,0.0
296,0.0
307,0.0
308,0.0
309,20.0040963410333
310,9.587231555726664E-04
312,0.0
313,0.0
314,0.0
315,19252.7757122092
316,0.0
317,0.0
318,2764449.56811613
370,0.0
412,3.255437084273251E-02
413,60.
414,26.1816314792123
415,4122085.90295061
417,0.0
419,7.865600000000000E-02
420,60.
421,39.129230172075
422,5720014.66443867
424,0.0
426,9.832000000000000E-02
427,60.
428,36.8309322445898
609,19252.7757122092
641,0.0
311,1.
2,1, 1,21, 0, 4,10.00,20.00,WinterDesignDay
6,-17.3
7,-17.3
153,25.057441259138
154,26.2024387059447
155,39.1144616641876
156,36.8152786356529
157,12.7602970973939
158,20.7909921707075
159,19.8015091605865
160,12.5771242123962
161,21.1451519603958
162,19.9825765702433
728,-1.90259682118693
729,-0.291573637933467
730,-0.504146450630578
163,0.0
214,0.0
235,0.0
236,0.0
237,12.5771242123962
238,9.126063437727966E-04
239,0.0
260,0.0
271,0.0
272,0.0
273,21.1451519603958
274,9.764070880670953E-04
275,0.0
296,0.0
307,0.0
308,0.0
309,19.9825765702433
310,9.516676268364300E-04
312,0.0
313,0.0
314,0.0
315,19267.7389097562
316,0.0
317,0.0
318,2767362.36280191
370,0.0
412,3.258973704225606E-02
413,60.
414,26.182736531244
415,4124576.24395524
417,0.0
419,7.865600000000000E-02
420,60.
421,39.1166211835375
422,5723421.77715841
424,0.0
426,9.832000000000000E-02
427,60.
428,36.8171316461499
609,19267.7389097562
641,0.0
311,1.
2,1, 1,21, 0, 4,20.00,30.00,WinterDesignDay
6,-17.3
7,-17.3
153,25.0572082677202
154,26.2034268683066
155,39.1020992113453
156,36.8017611760365
157,12.7470707546502
158,20.7676541816998
159,19.7784298238608
160,12.565854660263
161,21.1240436262553
162,19.9614544223294
728,-1.90508999479741
729,-0.296235759718781
730,-0.508722720115476
163,0.0
214,0.0
235,0.0
236,0.0
237,12.565854660263
238,9.083738552080885E-04
239,0.0
260,0.0
271,0.0
272,0.0
273,21.1240436262553
274,9.682792473927785E-04
275,0.0
296,0.0
307,0.0
308,0.0
309,19.9614544223294
310,9.450281844234777E-04
312,0.0
313,0.0
314,0.0
315,19282.4148078041
316,0.0
317,0.0
318,2770218.1938047
370,0.0
412,3.262441349140619E-02
413,60.
414,26.1838195992923
415,4127021.20289163
417,0.0
419,7.865600000000000E-02
420,60.
421,39.1042419715557
422,5726763.3135723
424,0.0
426,9.832000000000000E-02
427,60.
428,36.8035966662377
609,19282.4148078041
641,0.0
311,1.
2,1, 1,21, 0, 4,30.00,40.00,WinterDesignDay
6,-17.3
7,-17.3
153,25.0569795479645
154,26.204395423634
155,39.089960333192
156,36.7885019855252
157,12.7340965215105
158,20.7447095547576
159,19.7557582067349
160,12.5548090117823
161,21.1033031984754
162,19.9407213074153
728,-1.90752856260957
729,-0.300805099583807
730,-0.513206105776488
163,0.0
214,0.0
235,0.0
236,0.0
237,12.5548090117823
238,9.043846786549599E-04
239,0.0
260,0.0
271,0.0
272,0.0
273,21.1033031984754
274,9.606325522110434E-04
275,0.0
296,0.0
307,0.0
308,0.0
309,19.9407213074153
310,9.387802461748911E-04
312,0.0
313,0.0
314,0.0
315,19296.8109175569
316,0.0
317,0.0
318,2773018.50484217
370,0.0
412,3.265841761309216E-02
413,60.
414,26.184881256827
415,4129421.93283781
417,0.0
419,7.865600000000000E-02
420,60.
421,39.0920866979138
422,5730040.9956892
424,0.0
426,9.832000000000000E-02
427,60.
428,36.7903203298117
609,19296.8109175569
641,0.0
311,1.
2,1, 1,21, 0, 4,40.00,50.00,WinterDesignDay
6,-17.3
7,-17.3
153,25.056755000179
154,26.2053448803377
155,39.0780394702585
156,36.7754944270123
157,12.721368103635
158,20.7221502675708
159,19.7334856906861
160,12.543981597849
161,21.0829227042424
162,19.9203689163531
728,-1.90991418837641
729,-0.305284292497215
730,-0.517599134630961
163,0.0
214,0.0
235,0.0
236,0.0
237,12.543981597849
238,9.006248123736504E-04
239,0.0
260,0.0
271,0.0
272,0.0
273,21.0829227042424
274,9.534384688594304E-04
275,0.0
296,0.0
307,0.0
308,0.0
309,19.9203689163531
310,9.329006859565852E-04
312,0.0
313,0.0
314,0.0
315,19310.934436116
316,0.0
317,0.0
318,2775764.69186602
370,0.0
412,3.269176625486916E-02
413,60.
414,26.1859220567538
415,4131779.53408824
417,0.0
419,7.865600000000000E-02
420,60.
421,39.0801497916478
422,5733256.46509764
424,0.0
426,9.832000000000000E-02
427,60.
428,36.7772959875748
609,19310.934436116
641,0.0
311,1.
2,1, 1,21, 0, 4,50.00,60.00,WinterDesignDay
6,-17.3
7,-17.3
153,25.0565345265318
154,26.2062757293096
155,39.0663313069855
156,36.7627321618432
157,12.7088794096806
158,20.6999685254589
159,19.7116039040051
160,12.5333669144802
161,21.0628944147761
162,19.9003892015415
728,-1.91224847004459
729,-0.309675863623901
730,-0.5219042319732
163,0.0
214,0.0
235,0.0
236,0.0
237,12.5333669144802
238,8.970810616015567E-04
239,0.0
260,0.0
271,0.0
272,0.0
273,21.0628944147761
274,9.466701601700513E-04
275,0.0
296,0.0
307,0.0
308,0.0
309,19.9003892015415
310,9.273677470913503E-04
312,0.0
313,0.0
314,0.0
315,19324.7922661851
316,0.0
317,0.0
318,2778458.11046952
370,0.0
412,3.272447577792044E-02
413,60.
414,26.1869425336302
415,4134095.05860897
417,0.0
419,7.865600000000000E-02
420,60.
421,39.0684259264881
422,5736411.28949597
424,0.0
426,9.832000000000000E-02
427,60.
428,36.7645172895243
609,19324.7922661851
641,0.0
311,1.
2,1, 1,21, 0, 5, 0.00,10.00,WinterDesignDay
6,-17.3
7,-17.3
153,25.056318032341
154,26.2071884458992
155,39.0548307527124
156,36.7502091270246
157,12.6966245445118
158,20.678156751784
159,19.6901047109057
160,12.5229596250374
161,21.0432108375048
162,19.8807743698674
728,-1.91453294381854
729,-0.313982234711508
730,-0.526123727334424
163,0.0
214,0.0
235,0.0
236,0.0
237,12.5229596250374
238,8.937409919361799E-04
239,0.0
260,0.0
271,0.0
272,0.0
273,21.0432108375048
274,9.403023842172513E-04
275,0.0
296,0.0
307,0.0
308,0.0
309,19.8807743698674
310,9.221609609677259E-04
312,0.0
313,0.0
314,0.0
315,19338.3910372637
316,0.0
317,0.0
318,2781100.07640584
370,0.0
412,3.275656206395132E-02
413,60.
414,26.1879432048589
415,4136369.5138809
417,0.0
419,7.865600000000000E-02
420,60.
421,39.0569100014002
422,5739506.96845368
424,0.0
426,9.832000000000000E-02
427,60.
428,36.751978161615
609,19338.3910372637
641,0.0
311,1.
2,1, 1,21, 0, 5,10.00,20.00,WinterDesignDay
6,-17.3
7,-17.3
153,25.0561054261338
154,26.2080834903156
155,39.043532924911
156,36.7379195151291
157,12.6845978024509
158,20.6567075790834
159,19.6689802014872
160,12.5127545611359
161,21.0238647075846
162,19.8615168775673
728,-1.91676908608034
729,-0.318205729157556
730,-0.530259858903412
163,0.0
214,0.0
235,0.0
236,0.0
237,12.5127545611359
238,8.905928854208155E-04
239,0.0
260,0.0
271,0.0
272,0.0
273,21.0238647075846
274,9.343113991442387E-04
275,0.0
296,0.0
307,0.0
308,0.0
309,19.8615168775673
310,9.172610705131681E-04
312,0.0
313,0.0
314,0.0
315,19351.7371220133
316,0.0
317,0.0
318,2783691.86422339
370,0.0
412,3.278804049917063E-02
413,60.
414,26.1889245711017
415,4138603.86620513
417,0.0
419,7.865600000000000E-02
420,60.
421,39.0455971238495
422,5742544.93839396
424,0.0
426,9.832000000000000E-02
427,60.
428,36.7396727855777
609,19351.7371220133
641,0.0
311,1.
2,1, 1,21, 0, 5,20.00,30.00,WinterDesignDay
6,-17.3
7,-17.3
153,25.0558966192331
154,26.2089613077383
155,39.0324331341534
156,36.725857756377
157,12.6727936604396
158,20.6356138406319
159,19.648222682219
160,12.5027467174289
161,21.0048489771618
162,19.8426094237628
728,-1.91895831536552
729,-0.322348576902264
730,-0.534314777531722
163,0.0
214,0.0
235,0.0
236,0.0
237,12.5027467174289
238,8.876256991753610E-04
239,0.0
260,0.0
271,0.0
272,0.0
273,21.0048489771618
274,9.286748737002145E-04
275,0.0
296,0.0
307,0.0
308,0.0
309,19.8426094237628
310,9.126499582382057E-04
312,0.0
313,0.0
314,0.0
315,19364.8366500487
316,0.0
317,0.0
318,2786234.70749736
370,0.0
412,3.281892597705623E-02
413,60.
414,26.1898871166624
415,4140799.04365095
417,0.0
419,7.865600000000000E-02
420,60.
421,39.0344825948751
422,5745526.57700248
424,0.0
426,9.832000000000000E-02
427,60.
428,36.7275955810606
609,19364.8366500487
641,0.0
311,1.
2,1, 1,21, 0, 5,30.00,40.00,WinterDesignDay
6,-17.3
7,-17.3
153,25.0556915255068
154,26.2098223287523
155,39.0215268705613
156,36.714018502585
157,12.6612067712692
158,20.614868562381
159,19.6278246668151
160,12.4929312443996
161,20.9861568046666
162,19.8240449444862
728,-1.92110199490222
729,-0.326412919333306
730,-0.538290550689712
163,0.0
214,0.0
235,0.0
236,0.0
237,12.4929312443996
238,8.848290264239271E-04
239,0.0
260,0.0
271,0.0
272,0.0
273,20.9861568046666
274,9.233718031422400E-04