Program Version,EnergyPlus, Version 8.2.1-27b6d52898, YMD=2014.10.07 21:29
1,5,Environment Title[],Latitude[deg],Longitude[deg],Time Zone[],Elevation[m]
2,6,Day of Simulation[],Month[],Day of Month[],DST Indicator[1=yes 0=no],Hour[],StartMinute[],EndMinute[],DayType
3,3,Cumulative Day of Simulation[],Month[],Day of Month[],DST Indicator[1=yes 0=no],DayType  ! When Daily Report Variables Requested
4,2,Cumulative Days of Simulation[],Month[]  ! When Monthly Report Variables Requested
5,1,Cumulative Days of Simulation[] ! When Run Period Report Variables Requested
151,1,ZN003:FLR001,Surface Inside Face Temperature [C] !TimeStep
152,1,WEST ZONE,Zone Mean Radiant Temperature [C] !TimeStep
153,1,EAST ZONE,Zone Mean Radiant Temperature [C] !TimeStep
154,1,NORTH ZONE,Zone Mean Radiant Temperature [C] !TimeStep
155,1,WEST ZONE,Zone Mean Air Temperature [C] !TimeStep
156,1,EAST ZONE,Zone Mean Air Temperature [C] !TimeStep
157,1,NORTH ZONE,Zone Mean Air Temperature [C] !TimeStep
158,1,WEST ZONE,Zone Air System Sensible Heating Energy [J] !TimeStep
209,1,WEST ZONE,Zone Air System Sensible Cooling Energy [J] !TimeStep
230,1,WEST ZONE,Zone Air System Sensible Heating Rate [W] !TimeStep
231,1,WEST ZONE,Zone Air System Sensible Cooling Rate [W] !TimeStep
232,1,WEST ZONE,Zone Air Temperature [C] !TimeStep
233,1,WEST ZONE,Zone Air Humidity Ratio [] !TimeStep
234,1,EAST ZONE,Zone Air System Sensible Heating Energy [J] !TimeStep
255,1,EAST ZONE,Zone Air System Sensible Cooling Energy [J] !TimeStep
266,1,EAST ZONE,Zone Air System Sensible Heating Rate [W] !TimeStep
267,1,EAST ZONE,Zone Air System Sensible Cooling Rate [W] !TimeStep
268,1,EAST ZONE,Zone Air Temperature [C] !TimeStep
269,1,EAST ZONE,Zone Air Humidity Ratio [] !TimeStep
270,1,NORTH ZONE,Zone Air System Sensible Heating Energy [J] !TimeStep
291,1,NORTH ZONE,Zone Air System Sensible Cooling Energy [J] !TimeStep
302,1,NORTH ZONE,Zone Air System Sensible Heating Rate [W] !TimeStep
303,1,NORTH ZONE,Zone Air System Sensible Cooling Rate [W] !TimeStep
304,1,NORTH ZONE,Zone Air Temperature [C] !TimeStep
305,1,NORTH ZONE,Zone Air Humidity Ratio [] !TimeStep
306,1,SimHVAC,HVAC System Solver Iteration Count [] !TimeStep
307,1,CHILLED WATER LOOP,Plant Supply Side Cooling Demand Rate [W] !TimeStep
308,1,CHILLED WATER LOOP,Plant Supply Side Heating Demand Rate [W] !TimeStep
309,1,HOT WATER LOOP,Plant Supply Side Cooling Demand Rate [W] !TimeStep
310,1,HOT WATER LOOP,Plant Supply Side Heating Demand Rate [W] !TimeStep
311,1,CHILLED WATER CONDENSER LOOP,Plant Supply Side Cooling Demand Rate [W] !TimeStep
312,1,CHILLED WATER CONDENSER LOOP,Plant Supply Side Heating Demand Rate [W] !TimeStep
313,1,REHEAT COIL ZONE 1,Heating Coil Heating Energy [J] !TimeStep
365,1,REHEAT COIL ZONE 2,Heating Coil Heating Energy [J] !TimeStep
367,1,REHEAT COIL ZONE 3,Heating Coil Heating Energy [J] !TimeStep
369,1,DETAILED COOLING COIL,Cooling Coil Total Cooling Energy [J] !TimeStep
411,1,DETAILED COOLING COIL,Cooling Coil Sensible Cooling Energy [J] !TimeStep
412,1,DETAILED COOLING COIL,Cooling Coil Sensible Cooling Rate [W] !TimeStep
413,1,ZONE 1 RADIANT FLOOR,Zone Radiant HVAC Electric Power [W] !TimeStep
414,1,ZONE 1 RADIANT FLOOR,Zone Radiant HVAC Electric Energy [J] !TimeStep
435,1,ZONE 1 RADIANT FLOOR,Zone Radiant HVAC Heating Rate [W] !TimeStep
436,1,ZONE 1 RADIANT FLOOR,Zone Radiant HVAC Heating Energy [J] !TimeStep
437,1,ZONE 2 RADIANT FLOOR,Zone Radiant HVAC Electric Power [W] !TimeStep
438,1,ZONE 2 RADIANT FLOOR,Zone Radiant HVAC Electric Energy [J] !TimeStep
439,1,ZONE 2 RADIANT FLOOR,Zone Radiant HVAC Heating Rate [W] !TimeStep
440,1,ZONE 2 RADIANT FLOOR,Zone Radiant HVAC Heating Energy [J] !TimeStep
441,1,ZONE 3 RADIANT FLOOR,Zone Radiant HVAC Electric Power [W] !TimeStep
442,1,ZONE 3 RADIANT FLOOR,Zone Radiant HVAC Electric Energy [J] !TimeStep
443,1,ZONE 3 RADIANT FLOOR,Zone Radiant HVAC Heating Rate [W] !TimeStep
444,1,ZONE 3 RADIANT FLOOR,Zone Radiant HVAC Heating Energy [J] !TimeStep
445,1,SUPPLY FAN 1,Fan Rise in Air Temperature [deltaC] !TimeStep
446,1,SUPPLY FAN 1,Fan Electric Energy [J] !TimeStep
647,1,PURCHASED HEATING,District Heating Rate [W] !TimeStep
679,1,PURCHASED COOLING,District Cooling Rate [W] !TimeStep
766,1,WEST ZONE,Zone Thermal Comfort Fanger Model PMV [] !TimeStep
767,1,EAST ZONE,Zone Thermal Comfort Fanger Model PMV [] !TimeStep
768,1,NORTH ZONE,Zone Thermal Comfort Fanger Model PMV [] !TimeStep
160,1,EnergyTransfer:Facility [J] !Hourly
170,1,EnergyTransfer:Building [J] !Hourly
180,1,EnergyTransfer:Zone:WEST ZONE [J] !Hourly
236,1,EnergyTransfer:Zone:EAST ZONE [J] !Hourly
272,1,EnergyTransfer:Zone:NORTH ZONE [J] !Hourly
315,1,EnergyTransfer:HVAC [J] !Hourly
583,1,EnergyTransfer:Plant [J] !Hourly
8,1,Electricity:Facility [J] !Hourly
18,1,Electricity:Building [J] !Hourly
28,1,Electricity:Zone:EAST ZONE [J] !Hourly
69,1,Electricity:Zone:NORTH ZONE [J] !Hourly
90,1,Electricity:Zone:WEST ZONE [J] !Hourly
416,1,Electricity:HVAC [J] !Hourly
562,1,Electricity:Plant [J] !Hourly
End of Data Dictionary
1,CHICAGO ANN HTG 99% CONDNS DB,  41.98, -87.92,  -6.00, 201.00
2,1, 1,21, 0, 1, 0.00,10.00,WinterDesignDay
151,16.2332211195094
152,38.0332043533685
153,39.8479687040413
154,8.60478616241884
155,39.7890801563575
156,41.4587336001639
157,9.024251834249
766,4.84507396151019
767,5.3487155626048
768,-2.40922929470028
158,0.0
209,0.0
230,0.0
231,0.0
232,39.7890801563575
233,4.948630258671572E-02
234,0.0
255,0.0
266,0.0
267,0.0
268,41.4587336001639
269,5.447349863569895E-02
270,0.0
291,0.0
302,0.0
303,0.0
304,9.024251834249
305,7.305170567176413E-03
307,0.0
308,0.0
309,0.0
310,0.0
311,0.0
312,0.0
313,0.0
365,0.0
367,0.0
369,0.0
411,0.0
412,0.0
413,10000.
414,6000000.
435,10000.
436,6000000.
437,10000.
438,6000000.
439,10000.
440,6000000.
441,3684.12132571141
442,2210472.79542685
443,3684.12132571141
444,2210472.79542685
445,0.0
446,0.0
647,0.0
679,0.0
306,1.
2,1, 1,21, 0, 1,10.00,20.00,WinterDesignDay
151,16.2303633611404
152,37.9853707093391
153,39.8016845041946
154,8.57164541344607
155,39.7409816029733
156,41.4123155455286
157,8.99259193958924
766,4.83108020724019
767,5.33484554453499
768,-2.41593765070673
158,0.0
209,0.0
230,0.0
231,0.0
232,39.7409816029733
233,4.934926627735049E-02
234,0.0
255,0.0
266,0.0
267,0.0
268,41.4123155455286
269,5.432860889996936E-02
270,0.0
291,0.0
302,0.0
303,0.0
304,8.99259193958924
305,7.289385903015613E-03
307,0.0
308,0.0
309,0.0
310,0.0
311,0.0
312,0.0
313,0.0
365,0.0
367,0.0
369,0.0
411,0.0
412,0.0
413,10000.
414,6000000.
435,10000.
436,6000000.
437,10000.
438,6000000.
439,10000.
440,6000000.
441,3700.47931155066
442,2220287.5869304
443,3700.47931155066
444,2220287.5869304
445,0.0
446,0.0
647,0.0
679,0.0
306,1.
2,1, 1,21, 0, 1,20.00,30.00,WinterDesignDay
151,16.2275729126673
152,37.9381381906474
153,39.7559314199257
154,8.53929040873031
155,39.6935425399293
156,41.3664798973992
157,8.96167295703948
766,4.81728466809538
767,5.32115618367999
768,-2.42248600841931
158,0.0
209,0.0
230,0.0
231,0.0
232,39.6935425399293
233,4.921446768341485E-02
234,0.0
255,0.0
266,0.0
267,0.0
268,41.3664798973992
269,5.418589586259822E-02
270,0.0
291,0.0
302,0.0
303,0.0
304,8.96167295703948
305,7.273999905539157E-03
307,0.0
308,0.0
309,0.0
310,0.0
311,0.0
312,0.0
313,0.0
365,0.0
367,0.0
369,0.0
411,0.0
412,0.0
413,10000.
414,6000000.
435,10000.
436,6000000.
437,10000.
438,6000000.
439,10000.
440,6000000.
441,3716.44782653515
442,2229868.69592109
443,3716.44782653515
444,2229868.69592109
445,0.0
446,0.0
647,0.0
679,0.0
306,1.
2,1, 1,21, 0, 1,30.00,40.00,WinterDesignDay
151,16.2248477453402
152,37.8914927652198
153,39.7106976620772
154,8.50769749661595
155,39.6467449263232
156,41.3212115235358
157,8.93147334154146
766,4.80368223892117
767,5.30764267753414
768,-2.42887920606823
158,0.0
209,0.0
230,0.0
231,0.0
232,39.6467449263232
233,4.908182647766180E-02
234,0.0
255,0.0
266,0.0
267,0.0
268,41.3212115235358
269,5.404529762844113E-02
270,0.0
291,0.0
302,0.0
303,0.0
304,8.93147334154146
305,7.259000024677702E-03
307,0.0
308,0.0
309,0.0
310,0.0
311,0.0
312,0.0
313,0.0
365,0.0
367,0.0
369,0.0
411,0.0
412,0.0
413,10000.
414,6000000.
435,10000.
436,6000000.
437,10000.
438,6000000.
439,10000.
440,6000000.
441,3732.03882058575
442,2239223.29235145
443,3732.03882058575
444,2239223.29235145
445,0.0
446,0.0
647,0.0
679,0.0
306,1.
2,1, 1,21, 0, 1,40.00,50.00,WinterDesignDay
151,16.2221859261464
152,37.8454210506796
153,39.6659720131552
154,8.47684403763119
155,39.6005716727131
156,41.276496105564
157,8.90197244334514
766,4.79026737582916
767,5.29430056379793
768,-2.43512184819017
158,0.0
209,0.0
230,0.0
231,0.0
232,39.6005716727131
233,4.895129019487634E-02
234,0.0
255,0.0
266,0.0
267,0.0
268,41.276496105564
269,5.390675891232245E-02
270,0.0
291,0.0
302,0.0
303,0.0
304,8.90197244334514
305,7.244373842283867E-03
307,0.0
308,0.0
309,0.0
310,0.0
311,0.0
312,0.0
313,0.0
365,0.0
367,0.0
369,0.0
411,0.0
412,0.0
413,10000.
414,6000000.
435,10000.
436,6000000.
437,10000.
438,6000000.
439,10000.
440,6000000.
441,3747.26366472064
442,2248358.19883238
443,3747.26366472064
444,2248358.19883238
445,0.0
446,0.0
647,0.0
679,0.0
306,1.
2,1, 1,21, 0, 1,50.00,60.00,WinterDesignDay
151,16.21958560746
152,37.799910272101
153,39.6217437842865
154,8.44670832938289
155,39.5550065701101
156,41.2323200759469
157,8.87315043789644
766,4.77703550623401
767,5.28112570637515
768,-2.44121836043835
158,0.0
209,0.0
230,0.0
231,0.0
232,39.5550065701101
233,4.882279626326400E-02
234,0.0
255,0.0
266,0.0
267,0.0
268,41.2323200759469
269,5.377022506002299E-02
270,0.0
291,0.0
302,0.0
303,0.0
304,8.87315043789644
305,7.230109774246520E-03
307,0.0
308,0.0
309,0.0
310,0.0
311,0.0
312,0.0
313,0.0
365,0.0
367,0.0
369,0.0
411,0.0
412,0.0
413,10000.
414,6000000.
435,10000.
436,6000000.
437,10000.
438,6000000.
439,10000.
440,6000000.
441,3762.13321394494
442,2257279.92836696
443,3762.13321394494
444,2257279.92836696
445,0.0
446,0.0
647,0.0
679,0.0
306,1.
2,1, 1,21, 0, 1, 0.00,60.00,WinterDesignDay
8,85827230.5338291
18,421740.036
28,263587.5
69,158152.536
90,0.0
160,85405490.4978291
170,0.0
180,0.0
236,0.0
272,0.0
315,85405490.4978291
416,85405490.4978291
562,0.0
583,0.0
2,1, 1,21, 0, 2, 0.00,10.00,WinterDesignDay
151,16.2170450188866
152,37.7549482196401
153,39.5780027766949
154,8.417269540868
155,39.510034225868
156,41.1886705612215
157,8.84498826523268
766,4.76398190886313
767,5.26811411307293
768,-2.44717297927515
158,0.0
209,0.0
230,0.0
231,0.0
232,39.510034225868
233,4.869628283621362E-02
234,0.0
255,0.0
266,0.0
267,0.0
268,41.1886705612215
269,5.363564203110790E-02
270,0.0
291,0.0
302,0.0
303,0.0
304,8.84498826523268
305,7.216196353240430E-03
307,0.0
308,0.0
309,0.0
310,0.0
311,0.0
312,0.0
313,0.0
365,0.0
367,0.0
369,0.0
411,0.0
412,0.0
413,10000.
414,6000000.
435,10000.
436,6000000.
437,10000.
438,6000000.
439,10000.
440,6000000.
441,3776.65785710277
442,2265994.71426166
443,3776.65785710277
444,2265994.71426166
445,0.0
446,0.0
647,0.0
679,0.0
306,1.
2,1, 1,21, 0, 2,10.00,20.00,WinterDesignDay
151,16.2145624607169
152,37.7105232096014
153,39.5347392470609
154,8.38850765464253
155,39.4656400056063
156,41.1455353307068
157,8.81746757749427
766,4.75110201937349
767,5.2552619257339
768,-2.45298978714733
158,0.0
209,0.0
230,0.0
231,0.0
232,39.4656400056063
233,4.857170480882096E-02
234,0.0
255,0.0
266,0.0
267,0.0
268,41.1455353307068
269,5.350296224226430E-02
270,0.0
291,0.0
302,0.0
303,0.0
304,8.81746757749427
305,7.202623164078123E-03
307,0.0
308,0.0
309,0.0
310,0.0
311,0.0
312,0.0
313,0.0
365,0.0
367,0.0
369,0.0
411,0.0
412,0.0
413,10000.
414,6000000.
435,10000.
436,6000000.
437,10000.
438,6000000.
439,10000.
440,6000000.
441,3790.8475571668
442,2274508.53430008
443,3790.8475571668
444,2274508.53430008
445,0.0
446,0.0
647,0.0
679,0.0
306,1.
2,1, 1,21, 0, 2,20.00,30.00,WinterDesignDay
151,16.2121362985627
152,37.6666240538235
153,39.4919438762393
154,8.36040341558267
155,39.4218099804077
156,41.1029027500472
157,8.79057069320791
766,4.73839188985859
767,5.24256558023417
768,-2.45867269133541
158,0.0
209,0.0
230,0.0
231,0.0
232,39.4218099804077
233,4.844900160657174E-02
234,0.0
255,0.0
266,0.0
267,0.0
268,41.1029027500472
269,5.337213279029917E-02
270,0.0
291,0.0
302,0.0
303,0.0
304,8.79057069320791
305,7.189379658621418E-03
307,0.0
308,0.0
309,0.0
310,0.0
311,0.0
312,0.0
313,0.0
365,0.0
367,0.0
369,0.0
411,0.0
412,0.0
413,10000.
414,6000000.
435,10000.
436,6000000.
437,10000.
438,6000000.
439,10000.
440,6000000.
441,3804.71188438301
442,2282827.1306298
443,3804.71188438301
444,2282827.1306298
445,0.0
446,0.0
647,0.0
679,0.0
306,1.
2,1, 1,21, 0, 2,30.00,40.00,WinterDesignDay
151,16.2097649588642
152,37.6232400251026
153,39.4496077408943
154,8.33293828520101
155,39.3785308786833
156,41.0607617389912
157,8.76428055710674
766,4.72584723809923
767,5.23002145949331
768,-2.46422547206824
158,0.0
209,0.0
230,0.0
231,0.0
232,39.3785308786833
233,4.832813460413146E-02
234,0.0
255,0.0
266,0.0
267,0.0
268,41.0607617389912
269,5.324311300432650E-02
270,0.0
291,0.0
302,0.0
303,0.0
304,8.76428055710674
305,7.176456090652562E-03
307,0.0
308,0.0
309,0.0
310,0.0
311,0.0
312,0.0
313,0.0
365,0.0
367,0.0
369,0.0
411,0.0
412,0.0
413,10000.
414,6000000.
435,10000.
436,6000000.
437,10000.
438,6000000.
439,10000.
440,6000000.
441,3818.26004404388
442,2290956.02642633
443,3818.26004404388
444,2290956.02642633
445,0.0
446,0.0
647,0.0
679,0.0
306,1.
2,1, 1,21, 0, 2,40.00,50.00,WinterDesignDay
151,16.2074469250561
152,37.5803608332479
153,39.4077222876892
154,8.30609440066861
155,39.3357900422075
156,41.019101732983
157,8.73858070450528
766,4.7134645348191
767,5.21762639258758
768,-2.46965175921254
158,0.0
209,0.0
230,0.0
231,0.0
232,39.3357900422075
233,4.820904439246305E-02
234,0.0
255,0.0
266,0.0
267,0.0
268,41.019101732983
269,5.311585683911521E-02
270,0.0
291,0.0
302,0.0
303,0.0
304,8.73858070450528
305,7.163842804980706E-03
307,0.0
308,0.0
309,0.0
310,0.0
311,0.0
312,0.0
313,0.0
365,0.0
367,0.0
369,0.0
411,0.0
412,0.0
413,10000.
414,6000000.
435,10000.
436,6000000.
437,10000.
438,6000000.
439,10000.
440,6000000.
441,3831.50090019178
442,2298900.54011507
443,3831.50090019178
444,2298900.54011507
445,0.0
446,0.0
647,0.0
679,0.0
306,1.
2,1, 1,21, 0, 2,50.00,60.00,WinterDesignDay
151,16.2051807342367
152,37.5379765943934
153,39.3662793097169
154,8.279854537846
155,39.2935753858493
156,40.9779126480684
157,8.71345522947726
766,4.70123974567591
767,5.20537714087556
768,-2.47495506282453
158,0.0
209,0.0
230,0.0
231,0.0
232,39.2935753858493
233,4.809169867557456E-02
234,0.0
255,0.0
266,0.0
267,0.0
268,40.9779126480684
269,5.299032454249922E-02
270,0.0
291,0.0
302,0.0
303,0.0
304,8.71345522947726
305,7.151530467492151E-03
307,0.0
308,0.0
309,0.0
310,0.0
311,0.0
312,0.0
313,0.0
365,0.0
367,0.0
369,0.0
411,0.0
412,0.0
413,10000.
414,6000000.
435,10000.
436,6000000.
437,10000.
438,6000000.
439,10000.
440,6000000.
441,3844.44299618448
442,2306665.79771069
443,3844.44299618448
444,2306665.79771069
445,0.0
446,0.0
647,0.0
679,0.0
306,1.
2,1, 1,21, 0, 2, 0.00,60.00,WinterDesignDay
8,86141592.7794436
18,421740.036
28,263587.5
69,158152.536
90,0.0
160,85719852.7434436
170,0.0
180,0.0
236,0.0
272,0.0
315,85719852.7434436
416,85719852.7434436
562,0.0
583,0.0
2,1, 1,21, 0, 3, 0.00,10.00,WinterDesignDay
151,16.202964974236
152,37.4960778118986
153,39.3252709249116
154,8.25420207774955
155,39.2518753606204
156,40.9371848488107
157,8.68888875624672
766,4.6891697273147
767,5.19327072874822
768,-2.48013877174145
158,0.0
209,0.0
230,0.0
231,0.0
232,39.2518753606204
233,4.797604439587990E-02
234,0.0
255,0.0
266,0.0
267,0.0
268,40.9371848488107
269,5.286647678470090E-02
270,0.0
291,0.0
302,0.0
303,0.0
304,8.68888875624672
305,7.139510293209906E-03
307,0.0
308,0.0
309,0.0
310,0.0
311,0.0
312,0.0
313,0.0
365,0.0
367,0.0
369,0.0
411,0.0
412,0.0
413,10000.
414,6000000.
435,10000.
436,6000000.
437,10000.
438,6000000.
439,10000.
440,6000000.
441,3857.09457279156
442,2314256.74367494
443,3857.09457279156
444,2314256.74367494
445,0.0
446,0.0
647,0.0
679,0.0
306,1.
2,1, 1,21, 0, 3,10.00,20.00,WinterDesignDay
151,16.200798280999
152,37.4546553506168
153,39.2846895562186
154,8.22912097597798
155,39.2106789196748
156,40.8969091188754
157,8.66486641330515
766,4.67725081926023
767,5.18130426905805
768,-2.48520615164474
158,0.0
209,0.0
230,0.0
231,0.0
232,39.2106789196748
233,4.786204486711059E-02
234,0.0
255,0.0
266,0.0
267,0.0
268,40.8969091188754
269,5.274427464792955E-02
270,0.0
291,0.0
302,0.0
303,0.0
304,8.66486641330515
305,7.127773806946558E-03
307,0.0
308,0.0
309,0.0
310,0.0
311,0.0
312,0.0
313,0.0
365,0.0
367,0.0
369,0.0
411,0.0
412,0.0
413,10000.
414,6000000.
435,10000.
436,6000000.
437,10000.
438,6000000.
439,10000.
440,6000000.
441,3869.46358430981
442,2321678.15058589
443,3869.46358430981
444,2321678.15058589
445,0.0
446,0.0
647,0.0
679,0.0
306,1.
2,1, 1,21, 0, 3,20.00,30.00,WinterDesignDay
151,16.1986793362256
152,37.4137004180304
153,39.2445279133327
154,8.20459573470335
155,39.1699754870009
156,40.8570766340134
157,8.64137380984631
766,4.66547992606509
767,5.16947495793471
768,-2.49016035814941
158,0.0
209,0.0
230,0.0
231,0.0
232,39.1699754870009
233,4.774966380224432E-02
234,0.0
255,0.0
266,0.0
267,0.0
268,40.8570766340134
269,5.262367961625917E-02
270,0.0
291,0.0
302,0.0
303,0.0
304,8.64137380984631
305,7.116313071227347E-03
307,0.0
308,0.0
309,0.0
310,0.0
311,0.0
312,0.0
313,0.0
365,0.0
367,0.0
369,0.0
411,0.0
412,0.0
413,10000.
414,6000000.
435,10000.
436,6000000.
437,10000.
438,6000000.
439,10000.
440,6000000.
441,3881.55771306509
442,2328934.62783905
443,3881.55771306509
444,2328934.62783905
445,0.0
446,0.0
647,0.0
679,0.0
306,1.
2,1, 1,21, 0, 3,30.00,40.00,WinterDesignDay
151,16.1966068652224
152,37.373204546363
153,39.20477897584
154,8.18061137689593
155,39.1297549285057
156,40.8176789372076
157,8.61839701418263
766,4.65385404466887
767,5.15778007000033
768,-2.49500443392815
158,0.0
209,0.0
230,0.0
231,0.0
232,39.1297549285057
233,4.763885480581271E-02
234,0.0
255,0.0
266,0.0
267,0.0
268,40.8176789372076
269,5.250466507741704E-02
270,0.0
291,0.0
302,0.0
303,0.0
304,8.61839701418263
305,7.105119751808881E-03
307,0.0
308,0.0
309,0.0
310,0.0
311,0.0
312,0.0
313,0.0
365,0.0
367,0.0
369,0.0
411,0.0
412,0.0
413,10000.
414,6000000.
435,10000.
436,6000000.
437,10000.
438,6000000.
439,10000.
440,6000000.
441,3893.38438258087
442,2336030.62954852
443,3893.38438258087
444,2336030.62954852
445,0.0
446,0.0
647,0.0
679,0.0
306,1.
2,1, 1,21, 0, 3,40.00,50.00,WinterDesignDay
151,16.1945796349308
152,37.3331595717815
153,39.1654359776254
154,8.15715342250556
155,39.0900075252985
156,40.7787079157944
157,8.59592253386606
766,4.64236995105049
767,5.14621728680343
768,-2.49974134409386
158,0.0
209,0.0
230,0.0
231,0.0
232,39.0900075252985
233,4.752959290265296E-02
234,0.0
255,0.0
266,0.0
267,0.0
268,40.7787079157944
269,5.238718747287294E-02
270,0.0
291,0.0
302,0.0
303,0.0
304,8.59592253386606
305,7.094186509290175E-03
307,0.0
308,0.0
309,0.0
310,0.0
311,0.0
312,0.0
313,0.0
365,0.0
367,0.0
369,0.0
411,0.0
412,0.0
413,10000.
414,6000000.
435,10000.
436,6000000.
437,10000.
438,6000000.
439,10000.
440,6000000.
441,3904.95076962889
442,2342970.46177733
443,3904.95076962889
444,2342970.46177733
445,0.0
446,0.0
647,0.0
679,0.0
306,1.
2,1, 1,21, 0, 3,50.00,60.00,WinterDesignDay
151,16.1925964521067
152,37.2935576216078
153,39.1264923924187
154,8.13420786636631
155,39.0507239489539
156,40.7401557802839
157,8.57393729729027
766,4.63102512093274
767,5.13478385910103
768,-2.50437393394183
158,0.0
209,0.0
230,0.0
231,0.0
232,39.0507239489539
233,4.742183771722773E-02
234,0.0
255,0.0
266,0.0
267,0.0
268,40.7401557802839
269,5.227121513046001E-02
270,0.0
291,0.0
302,0.0
303,0.0
304,8.57393729729027
305,7.083505601357106E-03
307,0.0
308,0.0
309,0.0
310,0.0
311,0.0
312,0.0
313,0.0
365,0.0
367,0.0
369,0.0
411,0.0
412,0.0
413,10000.
414,6000000.
435,10000.
436,6000000.
437,10000.
438,6000000.
439,10000.
440,6000000.
441,3916.26381532953
442,2349758.28919772
443,3916.26381532953
444,2349758.28919772
445,0.0
446,0.0
647,0.0
679,0.0
306,1.
2,1, 1,21, 0, 3, 0.00,60.00,WinterDesignDay
8,86415368.9386234
18,421740.036
28,263587.5
69,158152.536
90,0.0
160,85993628.9026234
170,0.0
180,0.0
236,0.0
272,0.0
315,85993628.9026234
416,85993628.9026234
562,0.0
583,0.0
2,1, 1,21, 0, 4, 0.00,10.00,WinterDesignDay
151,16.1906561616293
152,37.2543910963795
153,39.0879419203745
154,8.11176115762661
155,39.0118952385682
156,40.7020150448447
157,8.55242863658135
766,4.61981664553261
767,5.12347743671398
768,-2.50890497911639
158,0.0
209,0.0
230,0.0
231,0.0
232,39.0118952385682
233,4.731555970938502E-02
234,0.0
255,0.0
266,0.0
267,0.0
268,40.7020150448447
269,5.215672813431247E-02
270,0.0
291,0.0
302,0.0
303,0.0
304,8.55242863658135
305,7.073070270845328E-03
307,0.0
308,0.0
309,0.0
310,0.0
311,0.0
312,0.0
313,0.0
365,0.0
367,0.0
369,0.0
411,0.0
412,0.0
413,10000.
414,6000000.
435,10000.
436,6000000.
437,10000.
438,6000000.
439,10000.
440,6000000.
441,3927.33023543295
442,2356398.14125977
443,3927.33023543295
444,2356398.14125977
445,0.0
446,0.0
647,0.0
679,0.0
306,1.
2,1, 1,21, 0, 4,10.00,20.00,WinterDesignDay
151,16.1887576449239
152,37.2156526570499
153,39.0497784755964
154,8.08980018053758
155,38.9735127794783
156,40.6642785092524
157,8.53138427162319
766,4.60874199757143
767,5.11229606206927
768,-2.5133371429274
158,0.0
209,0.0
230,0.0
231,0.0
232,38.9735127794783
233,4.721072444194267E-02
234,0.0
255,0.0
266,0.0
267,0.0
268,40.6642785092524
269,5.204368395324071E-02
270,0.0
291,0.0
302,0.0
303,0.0
304,8.53138427162319
305,7.062873583078693E-03
307,0.0
308,0.0
309,0.0
310,0.0
311,0.0
312,0.0
313,0.0
365,0.0
367,0.0
369,0.0
411,0.0
412,0.0
413,10000.
414,6000000.
435,10000.
436,6000000.
437,10000.
438,6000000.
439,10000.
440,6000000.
441,3938.1565298878
442,2362893.91793268
443,3938.1565298878
444,2362893.91793268
445,0.0
446,0.0
647,0.0
679,0.0
306,1.
2,1, 1,21, 0, 4,20.00,30.00,WinterDesignDay
151,16.1868998184841
152,37.1773352110508
153,39.011996174513
154,8.06831223645621
155,38.9355682834783
156,40.6269392420729
157,8.51079229508199
766,4.59779856603982
767,5.10123717250815
768,-2.51767301822832
158,0.0
209,0.0
230,0.0
231,0.0
232,38.9355682834783
233,4.710729782078299E-02
234,0.0
255,0.0
266,0.0
267,0.0
268,40.6269392420729
269,5.193205754206772E-02
270,0.0
291,0.0
302,0.0
303,0.0
304,8.51079229508199
305,7.052908886655450E-03
307,0.0
308,0.0
309,0.0
310,0.0
311,0.0
312,0.0
313,0.0
365,0.0
367,0.0
369,0.0
411,0.0
412,0.0
413,10000.
414,6000000.
435,10000.
436,6000000.
437,10000.
438,6000000.
439,10000.
440,6000000.
441,3948.74899178237
442,2369249.39506942
443,3948.74899178237
444,2369249.39506942
445,0.0
446,0.0
647,0.0
679,0.0
306,1.
2,1, 1,21, 0, 4,30.00,40.00,WinterDesignDay
151,16.1850816324829
152,37.1394318991775
153,38.974589325041
154,8.04728502694105
155,38.8980537704203
156,40.5899905651461
157,8.4906411583212
766,4.58698380656562
767,5.09029875783954
768,-2.52191511513101
158,0.0
209,0.0
230,0.0
231,0.0
232,38.8980537704203
233,4.700525126923949E-02
234,0.0
255,0.0
266,0.0
267,0.0
268,40.5899905651461
269,5.182182410548081E-02
270,0.0
291,0.0
302,0.0
303,0.0
304,8.4906411583212
305,7.043169579817100E-03
307,0.0
308,0.0
309,0.0
310,0.0
311,0.0
312,0.0
313,0.0
365,0.0
367,0.0
369,0.0
411,0.0
412,0.0
413,10000.
414,6000000.
435,10000.
436,6000000.
437,10000.
438,6000000.
439,10000.
440,6000000.
441,3959.11371572965
442,2375468.22943779
443,3959.11371572965
444,2375468.22943779
445,0.0
446,0.0
647,0.0
679,0.0
306,1.
2,1, 1,21, 0, 4,40.00,50.00,WinterDesignDay
151,16.1833020694638
152,37.1019360837685
153,38.9375524164683
154,8.02670663783501
155,38.860961551069
156,40.5534260391531
157,8.47091965811273
766,4.57629539041635
767,5.07947885915645
768,-2.52606587162546
158,0.0
209,0.0
230,0.0
231,0.0
232,38.860961551069
233,4.690456166743279E-02
234,0.0
255,0.0
266,0.0
267,0.0
268,40.5534260391531
269,5.171295909269295E-02
270,0.0
291,0.0
302,0.0
303,0.0
304,8.47091965811273
305,7.033649568765835E-03
307,0.0
308,0.0
309,0.0
310,0.0
311,0.0
312,0.0
313,0.0
365,0.0
367,0.0
369,0.0
411,0.0
412,0.0
413,10000.
414,6000000.
435,10000.
436,6000000.
437,10000.
438,6000000.
439,10000.
440,6000000.
441,3969.25660575435
442,2381553.96345261
443,3969.25660575435
444,2381553.96345261
445,0.0
446,0.0
647,0.0
679,0.0
306,1.
2,1, 1,21, 0, 4,50.00,60.00,WinterDesignDay
151,16.1815601431037
152,37.0648413386516
153,38.900880109997
154,8.00656552424408
155,38.8242842111059
156,40.5172394501772
157,8.45161692406582
766,4.56573120017195
767,5.06877556623215
768,-2.53012764103452
158,0.0
209,0.0
230,0.0
231,0.0
232,38.8242842111059
233,4.680520096978510E-02
234,0.0
255,0.0
266,0.0
267,0.0
268,40.5172394501772
269,5.160543253017703E-02
270,0.0
291,0.0
302,0.0
303,0.0
304,8.45161692406582
305,7.024342803694974E-03
307,0.0
308,0.0
309,0.0
310,0.0
311,0.0
312,0.0
313,0.0
365,0.0
367,0.0
369,0.0
411,0.0
412,0.0
413,10000.
414,6000000.
435,10000.
436,6000000.
437,10000.
438,6000000.
439,10000.
440,6000000.
441,3979.18338273113
442,2387510.02963868
443,3979.18338273113
444,2387510.02963868
445,0.0
446,0.0
647,0.0
679,0.0
306,1.
2,1, 1,21, 0, 4, 0.00,60.00,WinterDesignDay
8,86654813.7127909
18,421740.036
28,263587.5
69,158152.536
90,0.0
160,86233073.676791
170,0.0
180,0.0
236,0.0
272,0.0
315,86233073.676791
416,86233073.676791
562,0.0
583,0.0
2,1, 1,21, 0, 5, 0.00,10.00,WinterDesignDay
151,16.1798548970418
152,37.0281414387402
153,38.864567229894
154,7.986850496333
155,38.7880145962101
156,40.4814247971855
157,8.43272240670442
766,4.55528902190591
767,5.05818685093093
768,-2.53410270998321
158,0.0
209,0.0
230,0.0
231,0.0
232,38.7880145962101
233,4.670713625091490E-02
234,0.0
255,0.0
266,0.0
267,0.0
268,40.4814247971855
269,5.149922037385637E-02
270,0.0
291,0.0
302,0.0
303,0.0
304,8.43272240670442
305,7.015243506756815E-03
307,0.0
308,0.0
309,0.0
310,0.0
311,0.0
312,0.0
313,0.0
365,0.0
367,0.0
369,0.0
411,0.0
412,0.0
413,10000.
414,6000000.
435,10000.
436,6000000.
437,10000.
438,6000000.
439,10000.
440,6000000.
441,3988.89959141617
442,2393339.7548497
443,3988.89959141617
444,2393339.7548497
445,0.0
446,0.0
647,0.0
679,0.0
306,1.
2,1, 1,21, 0, 5,10.00,20.00,WinterDesignDay
151,16.1781854037678
152,36.9918303481669
153,38.8286087552049
154,7.96755070586869
155,38.7521457981436
156,40.4459762803956
157,8.41422586613587
766,4.54496654356841
767,5.04771089404571
768,-2.53799329323242
158,0.0
209,0.0
230,0.0
231,0.0
232,38.7521457981436
233,4.661035031677926E-02
234,0.0
255,0.0
266,0.0
267,0.0
268,40.4459762803956
269,5.139429880804126E-02
270,0.0
291,0.0
302,0.0
303,0.0
304,8.41422586613587
305,7.006346169271844E-03
307,0.0
308,0.0
309,0.0
310,0.0
311,0.0
312,0.0
313,0.0
365,0.0
367,0.0
369,0.0
411,0.0
412,0.0
413,10000.
414,6000000.
435,10000.
436,6000000.
437,10000.
438,6000000.
439,10000.
440,6000000.
441,3998.41060710749
442,2399046.36426449
443,3998.41060710749
444,2399046.36426449
445,0.0
446,0.0
647,0.0
679,0.0
306,1.
2,1, 1,21, 0, 5,20.00,30.00,WinterDesignDay
151,16.176550763566
152,36.9559022141258
153,38.7929998119874
154,7.94865563345114
155,38.7166711417264
156,40.4108882904179
157,8.39611736126108
766,4.53476195923976
767,5.03734591818729
768,-2.54180153606157
158,0.0
209,0.0
230,0.0
231,0.0
232,38.7166711417264
233,4.651481075698791E-02
234,0.0
255,0.0
266,0.0
267,0.0
268,40.4108882904179
269,5.129063861133883E-02
270,0.0
291,0.0
302,0.0
303,0.0
304,8.39611736126108
305,6.997645320082932E-03
307,0.0
308,0.0
309,0.0
310,0.0
311,0.0
312,0.0
313,0.0
365,0.0
367,0.0
369,0.0
411,0.0
412,0.0
413,10000.
414,6000000.
435,10000.
436,6000000.
437,10000.
438,6000000.
439,10000.
440,6000000.
441,4007.72164196541
442,2404632.98517924
443,4007.72164196541
444,2404632.98517924
445,0.0
446,0.0
647,0.0
679,0.0
306,1.
2,1, 1,21, 0, 5,30.00,40.00,WinterDesignDay
151,16.1749501035094
152,36.9203513556501
153,38.7577356660245
154,7.9301550763784
155,38.6815841726497
156,40.3761553981024
157,8.37838723948254
766,4.52467305635685
767,5.02709002243097
768,-2.54552952414928
158,0.0
209,0.0
230,0.0
231,0.0
232,38.6815841726497
233,4.642049569869793E-02
234,0.0
255,0.0
266,0.0
267,0.0
268,40.3761553981024
269,5.118822767947838E-02
270,0.0
291,0.0
302,0.0
303,0.0
304,8.37838723948254
305,6.989135524267012E-03
307,0.0
308,0.0
309,0.0
310,0.0
311,0.0
312,0.0
313,0.0
365,0.0
367,0.0
369,0.0
411,0.0
412,0.0
413,10000.
414,6000000.
435,10000.
436,6000000.
437,10000.
438,6000000.
439,10000.
440,6000000.
441,4016.83775101973
442,2410102.65061184
443,4016.83775101973
444,2410102.65061184
445,0.0
446,0.0
647,0.0
679,0.0
306,1.
2,1, 1,21, 0, 5,40.00,50.00,WinterDesignDay
151,16.1733825765018
152,36.8851722564224
153,38.7228117159864
154,7.91203913709852
155,38.6468786460736
156,40.3417723450987
157,8.36102612687284
766,4.5146979713709
767,5.01694183412437
768,-2.54917928569233
158,0.0
209,0.0
230,0.0
231,0.0
232,38.6468786460736
233,4.632738347787620E-02
234,0.0
255,0.0
266,0.0
267,0.0
268,40.3417723450987
269,5.108704282116487E-02
270,0.0
291,0.0
302,0.0
303,0.0
304,8.36102612687284
305,6.980811838873271E-03
307,0.0
308,0.0
309,0.0
310,0.0
311,0.0
312,0.0
313,0.0
365,0.0
367,0.0
369,0.0
411,0.0
412,0.0
413,10000.
414,6000000.
435,10000.
436,6000000.
437,10000.
438,6000000.
439,10000.
440,6000000.
441,4025.76383788741
442,2415458.30273245
443,4025.76383788741
444,2415458.30273245
445,0.0
446,0.0
647,0.0
679,0.0
306,1.
2,1, 1,21, 0, 5,50.00,60.00,WinterDesignDay
151,16.1718473603636
152,36.8503595570633
153,38.6882234870041
154,7.89429821220676
155,38.6125485159327
156,40.3077340349747
157,8.34402491877154
766,4.5048348840259
767,5.00689968905258
768,-2.55275277823145
158,0.0
209,0.0
230,0.0
231,0.0
232,38.6125485159327
233,4.623545263478581E-02
234,0.0
255,0.0
266,0.0
267,0.0
268,40.3077340349747
269,5.098705545787446E-02
270,0.0
291,0.0
302,0.0
303,0.0
304,8.34402491877154
305,6.972669352815097E-03
307,0.0
308,0.0
309,0.0
310,0.0
311,0.0
312,0.0
313,0.0
365,0.0
367,0.0
369,0.0
411,0.0
412,0.0
413,10000.
414,6000000.
435,10000.
436,6000000.
437,10000.
438,6000000.
439,10000.