Program Version,EnergyPlus, Version 9.4.0-9265a144d4, YMD=2021.03.08 15:55
1,5,Environment Title[],Latitude[deg],Longitude[deg],Time Zone[],Elevation[m]
2,8,Day of Simulation[],Month[],Day of Month[],DST Indicator[1=yes 0=no],Hour[],StartMinute[],EndMinute[],DayType
3,5,Cumulative Day of Simulation[],Month[],Day of Month[],DST Indicator[1=yes 0=no],DayType  ! When Daily Report Variables Requested
4,2,Cumulative Days of Simulation[],Month[]  ! When Monthly Report Variables Requested
5,1,Cumulative Days of Simulation[] ! When Run Period Report Variables Requested
6,1,Calendar Year of Simulation[] ! When Annual Report Variables Requested
7,1,Environment,Site Outdoor Air Drybulb Temperature [C] !Hourly
8,1,Environment,Site Outdoor Air Relative Humidity [%] !Hourly
9,1,SOUTH WALL,HAMT Surface Average Water Content Ratio [kg/kg] !Hourly
10,1,EAST WALL,HAMT Surface Average Water Content Ratio [kg/kg] !Hourly
11,1,EAST WALL,HAMT Surface Temperature Cell 1 [C] !Hourly
12,1,EAST WALL,HAMT Surface Temperature Cell 2 [C] !Hourly
13,1,EAST WALL,HAMT Surface Temperature Cell 3 [C] !Hourly
14,1,EAST WALL,HAMT Surface Temperature Cell 4 [C] !Hourly
15,1,EAST WALL,HAMT Surface Temperature Cell 5 [C] !Hourly
16,1,EAST WALL,HAMT Surface Temperature Cell 6 [C] !Hourly
17,1,EAST WALL,HAMT Surface Temperature Cell 7 [C] !Hourly
18,1,EAST WALL,HAMT Surface Temperature Cell 8 [C] !Hourly
19,1,EAST WALL,HAMT Surface Temperature Cell 9 [C] !Hourly
20,1,EAST WALL,HAMT Surface Temperature Cell 10 [C] !Hourly
21,1,EAST WALL,HAMT Surface Temperature Cell 11 [C] !Hourly
22,1,EAST WALL,HAMT Surface Temperature Cell 12 [C] !Hourly
23,1,EAST WALL,HAMT Surface Temperature Cell 13 [C] !Hourly
24,1,EAST WALL,HAMT Surface Temperature Cell 14 [C] !Hourly
25,1,EAST WALL,HAMT Surface Temperature Cell 15 [C] !Hourly
26,1,EAST WALL,HAMT Surface Temperature Cell 16 [C] !Hourly
27,1,EAST WALL,HAMT Surface Temperature Cell 17 [C] !Hourly
28,1,EAST WALL,HAMT Surface Temperature Cell 18 [C] !Hourly
29,1,EAST WALL,HAMT Surface Temperature Cell 19 [C] !Hourly
30,1,EAST WALL,HAMT Surface Temperature Cell 20 [C] !Hourly
31,1,EAST WALL,HAMT Surface Temperature Cell 21 [C] !Hourly
32,1,EAST WALL,HAMT Surface Temperature Cell 22 [C] !Hourly
33,1,EAST WALL,HAMT Surface Temperature Cell 23 [C] !Hourly
34,1,EAST WALL,HAMT Surface Temperature Cell 24 [C] !Hourly
35,1,EAST WALL,HAMT Surface Temperature Cell 25 [C] !Hourly
36,1,EAST WALL,HAMT Surface Temperature Cell 26 [C] !Hourly
37,1,EAST WALL,HAMT Surface Temperature Cell 27 [C] !Hourly
38,1,EAST WALL,HAMT Surface Temperature Cell 28 [C] !Hourly
39,1,EAST WALL,HAMT Surface Temperature Cell 29 [C] !Hourly
40,1,EAST WALL,HAMT Surface Temperature Cell 30 [C] !Hourly
41,1,EAST WALL,HAMT Surface Temperature Cell 31 [C] !Hourly
42,1,EAST WALL,HAMT Surface Temperature Cell 32 [C] !Hourly
43,1,EAST WALL,HAMT Surface Water Content Cell 1 [kg/kg] !Hourly
44,1,EAST WALL,HAMT Surface Water Content Cell 2 [kg/kg] !Hourly
45,1,EAST WALL,HAMT Surface Water Content Cell 3 [kg/kg] !Hourly
46,1,EAST WALL,HAMT Surface Water Content Cell 4 [kg/kg] !Hourly
47,1,EAST WALL,HAMT Surface Water Content Cell 5 [kg/kg] !Hourly
48,1,EAST WALL,HAMT Surface Water Content Cell 6 [kg/kg] !Hourly
49,1,EAST WALL,HAMT Surface Water Content Cell 7 [kg/kg] !Hourly
50,1,EAST WALL,HAMT Surface Water Content Cell 8 [kg/kg] !Hourly
51,1,EAST WALL,HAMT Surface Water Content Cell 9 [kg/kg] !Hourly
52,1,EAST WALL,HAMT Surface Water Content Cell 10 [kg/kg] !Hourly
53,1,EAST WALL,HAMT Surface Water Content Cell 11 [kg/kg] !Hourly
54,1,EAST WALL,HAMT Surface Water Content Cell 12 [kg/kg] !Hourly
55,1,EAST WALL,HAMT Surface Water Content Cell 13 [kg/kg] !Hourly
56,1,EAST WALL,HAMT Surface Water Content Cell 14 [kg/kg] !Hourly
57,1,EAST WALL,HAMT Surface Water Content Cell 15 [kg/kg] !Hourly
58,1,EAST WALL,HAMT Surface Water Content Cell 16 [kg/kg] !Hourly
59,1,EAST WALL,HAMT Surface Water Content Cell 17 [kg/kg] !Hourly
60,1,EAST WALL,HAMT Surface Water Content Cell 18 [kg/kg] !Hourly
61,1,EAST WALL,HAMT Surface Water Content Cell 19 [kg/kg] !Hourly
62,1,EAST WALL,HAMT Surfa